                               Psi4 1.3.2 release

  ==> Input File <==

--------------------------------------------------------------------------
memory 50 GB
molecule {
1 1
C           0.1507971    -0.0297132    -0.0035504
C          -0.5837329    -0.6311985     1.0777159
C          -2.0004604    -0.6117104     1.0688519
C          -2.7024216     0.0128508    -0.0044555
C          -1.9814338     0.6200432    -1.0749882
C          -0.5645642     0.6025497    -1.0801324
C           1.6580318    -0.0246551     0.0117981
N           2.3819214     0.2610860    -1.1325831
N           2.3598102    -0.2698021     1.1786069
H          -0.0589532    -1.1498165     1.9033087
H          -2.5605110    -1.0878684     1.8971187
H          -3.8109955     0.0278892    -0.0056497
H          -2.5264376     1.1149951    -1.9022806
H          -0.0239911     1.1102640    -1.9021510
H           3.4335679     0.2888629    -1.1360372
H           1.8939607     0.3394353    -2.0586882
H           3.4111867    -0.2876524     1.2077710
H           1.8483056    -0.3798405     2.0884764
}
set {
basis STO-3G
}
gradient('BLYP')
--------------------------------------------------------------------------

    Molecular point group: c1
  Charge       = 1
  Multiplicity = 1
  Basis Set: STO-3G
    Blend: STO-3G
  Basis Set: (STO-3G AUX)
    Blend: DEF2-SVP-JKFIT

    Orbital Energies [Eh]
    ---------------------

    Doubly Occupied:

       1A    -14.120527     2A    -14.120306     3A    -10.091623
       4A     -9.954378     5A     -9.928077     6A     -9.928003
       7A     -9.916227     8A     -9.913030     9A     -9.912841
      10A     -1.041117    11A     -0.961508    12A     -0.882068
      13A     -0.806054    14A     -0.782928    15A     -0.737841
      16A     -0.677802    17A     -0.668258    18A     -0.634673
      19A     -0.632586    20A     -0.593080    21A     -0.570773
      22A     -0.538620    23A     -0.507225    24A     -0.493884
      25A     -0.487821    26A     -0.483544    27A     -0.419690
      28A     -0.417635    29A     -0.412052    30A     -0.361414
      31A     -0.325408    32A     -0.320422

  @DF-RKS Final Energy:  -376.54167690989425

   => Energetics <=

    Nuclear Repulsion Energy =            406.3180612121423110
    One-Electron Energy =               -1303.4301853451975148
    Two-Electron Energy =                 574.8630197197721827
    DFT Exchange-Correlation Energy =     -54.2925724966112497
    Empirical Dispersion Energy =           0.0000000000000000
    VV10 Nonlocal Energy =                  0.0000000000000000
    Total Energy =                       -376.5416769098942495

  Dipole Moment: [D]
     X:     6.3096      Y:    -0.0392      Z:     0.0470     Total:     6.3099

    Molecular point group: c1

    Geometry (in Angstrom), charge = 1, multiplicity = 1:

       Center              X                  Y                   Z               Mass
    ------------   -----------------  -----------------  -----------------  -----------------
         C            0.186046602370    -0.022379236316    -0.009166139112    12.000000000000
         C           -0.548483397630    -0.623864536316     1.072100160888    12.000000000000
         C           -1.965210897630    -0.604376436316     1.063236160888    12.000000000000
         C           -2.667172097630     0.020184763684    -0.010071239112    12.000000000000
         C           -1.946184297630     0.627377163684    -1.080603939112    12.000000000000
         C           -0.529314697630     0.609883663684    -1.085748139112    12.000000000000
         C            1.693281302370    -0.017321136316     0.006182360888    12.000000000000
         N            2.417170902370     0.268419963684    -1.138198839112    14.003074004430
         N            2.395059702370    -0.262468136316     1.172991160888    14.003074004430
         H           -0.023703697630    -1.142482536316     1.897692960888     1.007825032230
         H           -2.525261497630    -1.080534436316     1.891502960888     1.007825032230
         H           -3.775745997630     0.035223163684    -0.011265439112     1.007825032230
         H           -2.491188097630     1.122329063684    -1.907896339112     1.007825032230
         H            0.011258402370     1.117597963684    -1.907766739112     1.007825032230
         H            3.468817402370     0.296196863684    -1.141652939112     1.007825032230
         H            1.929210202370     0.346769263684    -2.064303939112     1.007825032230
         H            3.446436202370    -0.280318436316     1.202155260888     1.007825032230
         H            1.883555102370    -0.372506536316     2.082860660888     1.007825032230

  Basis Set: STO-3G
    Blend: STO-3G
  Basis Set: (STO-3G AUX)
    Blend: DEF2-SVP-JKFIT

  -Total Gradient:
     Atom            X                  Y                   Z
    ------   -----------------  -----------------  -----------------
       1       -0.000005629373    -0.001331328456    -0.001015452542
       2        0.000014830918     0.001439351095     0.000813530781
       3        0.000035323834     0.000026682180    -0.000050137223
       4       -0.000092659000     0.000002047936    -0.000000966497
       5        0.000029438702    -0.000024976117     0.000043073888
       6        0.000021901590    -0.000002896093    -0.000008105222
       7        0.000061603365    -0.001791260389    -0.000189930653
       8       -0.000081457270     0.001611751968     0.000338259181
       9        0.000029618200     0.000083292359     0.000006089461
      10       -0.000001220638     0.000001209792     0.000000817991
      11       -0.000001258712     0.000001007197    -0.000007149554
      12       -0.000007653194    -0.000000227664    -0.000000012372
      13       -0.000002681597    -0.000002271822     0.000007206474
      14        0.000001843621    -0.000000748023    -0.000002114832
      15       -0.000007451425     0.000017140807     0.000049672295
      16       -0.000002896430     0.000043990137     0.000002327431
      17       -0.000004864315    -0.000035225488     0.000025843230
      18        0.000005324518    -0.000036257024    -0.000014008221

*** Psi4 exiting successfully. Buy a developer a beer!
