                               Psi4 1.3.2 release

  ==> Input File <==

--------------------------------------------------------------------------
memory 50 GB
molecule {
1 1
C           0.1507853     0.0000382     0.0112427
C          -0.5762909    -0.7003065     1.0342755
C          -1.9936587    -0.6983541     1.0139738
C          -2.6948238     0.0035499    -0.0110379
C          -1.9759163     0.7028697    -1.0255402
C          -0.5584432     0.6999387    -1.0245084
C           1.6576763    -0.0086300     0.0188127
N           2.3681168     0.0797833    -1.1638087
N           2.3550762    -0.1128689     1.2079380
H          -0.0395336    -1.2746573     1.8142167
H          -2.5545362    -1.2497353     1.7936294
H          -3.8033817     0.0052501    -0.0195291
H          -2.5231855     1.2551165    -1.8141990
H          -0.0080546     1.2719896    -1.7966370
H           3.4195272     0.1171174    -1.1910575
H           1.8578176     0.0520615    -2.0815551
H           3.4055255    -0.1652817     1.2454947
H           1.8368946    -0.0742216     2.1208702
}
set {
basis STO-3G
}
gradient('BLYP')
--------------------------------------------------------------------------

    Molecular point group: c1
  Charge       = 1
  Multiplicity = 1
  Basis Set: STO-3G
    Blend: STO-3G
  Basis Set: (STO-3G AUX)
    Blend: DEF2-SVP-JKFIT

    Orbital Energies [Eh]
    ---------------------

    Doubly Occupied:

       1A    -14.122441     2A    -14.122349     3A    -10.092010
       4A     -9.951291     5A     -9.925144     6A     -9.925080
       7A     -9.913734     8A     -9.910983     9A     -9.910773
      10A     -1.041976    11A     -0.963118    12A     -0.880572
      13A     -0.804923    14A     -0.780879    15A     -0.736899
      16A     -0.677706    17A     -0.666802    18A     -0.635223
      19A     -0.632073    20A     -0.593779    21A     -0.570260
      22A     -0.535752    23A     -0.510637    24A     -0.488719
      25A     -0.485963    26A     -0.480136    27A     -0.417380
      28A     -0.417228    29A     -0.410153    30A     -0.363072
      31A     -0.323924    32A     -0.318695

  @DF-RKS Final Energy:  -376.54215890528872

   => Energetics <=

    Nuclear Repulsion Energy =            406.4170199263939480
    One-Electron Energy =               -1303.6917024100791878
    Two-Electron Energy =                 575.0262724976960271
    DFT Exchange-Correlation Energy =     -54.2937489192995244
    Empirical Dispersion Energy =           0.0000000000000000
    VV10 Nonlocal Energy =                  0.0000000000000000
    Total Energy =                       -376.5421589052886588

  Dipole Moment: [D]
     X:     6.4450      Y:    -0.0291      Z:     0.0369     Total:     6.4452

    Molecular point group: c1

    Geometry (in Angstrom), charge = 1, multiplicity = 1:

       Center              X                  Y                   Z               Mass
    ------------   -----------------  -----------------  -----------------  -----------------
         C            0.185022401951     0.004472402802     0.003839492822    12.000000000000
         C           -0.542053798049    -0.695872297198     1.026872292822    12.000000000000
         C           -1.959421598049    -0.693919897198     1.006570592822    12.000000000000
         C           -2.660586698049     0.007984102802    -0.018441107178    12.000000000000
         C           -1.941679198049     0.707303902802    -1.032943407178    12.000000000000
         C           -0.524206098049     0.704372902802    -1.031911607178    12.000000000000
         C            1.691913401951    -0.004195797198     0.011409492822    12.000000000000
         N            2.402353901951     0.084217502802    -1.171211907178    14.003074004430
         N            2.389313301951    -0.108434697198     1.200534792822    14.003074004430
         H           -0.005296498049    -1.270223097198     1.806813492822     1.007825032230
         H           -2.520299098049    -1.245301097198     1.786226192822     1.007825032230
         H           -3.769144598049     0.009684302802    -0.026932307178     1.007825032230
         H           -2.488948398049     1.259550702802    -1.821602207178     1.007825032230
         H            0.026182501951     1.276423802802    -1.804040207178     1.007825032230
         H            3.453764301951     0.121551602802    -1.198460707178     1.007825032230
         H            1.892054701951     0.056495702802    -2.088958307178     1.007825032230
         H            3.439762601951    -0.160847497198     1.238091492822     1.007825032230
         H            1.871131701951    -0.069787397198     2.113466992822     1.007825032230

  Basis Set: STO-3G
    Blend: STO-3G
  Basis Set: (STO-3G AUX)
    Blend: DEF2-SVP-JKFIT

  -Total Gradient:
     Atom            X                  Y                   Z
    ------   -----------------  -----------------  -----------------
       1       -0.000032223576     0.000316339313     0.000311113484
       2        0.000010160709    -0.000349287897    -0.000165078353
       3        0.000055777313     0.000058789247    -0.000063237916
       4       -0.000110862254    -0.000007502620     0.000007454776
       5        0.000065510751    -0.000043178151     0.000065508223
       6        0.000003007832    -0.000008877213    -0.000064619498
       7       -0.000052014940     0.000385476968    -0.000067868274
       8        0.000036048718    -0.000364919548    -0.000013940868
       9        0.000040666290     0.000030749161    -0.000056620907
      10        0.000001515005     0.000008604106     0.000013461216
      11        0.000001918308     0.000005179873    -0.000005735581
      12       -0.000007450886    -0.000001269649    -0.000003015890
      13        0.000000334309    -0.000007921041     0.000006213149
      14        0.000004329101     0.000013373868     0.000000875691
      15        0.000000398786    -0.000005845105     0.000005280599
      16       -0.000002816221    -0.000004860891     0.000009329084
      17       -0.000003635995    -0.000015262049     0.000030367218
      18        0.000003815070    -0.000008632954    -0.000009827742

*** Psi4 exiting successfully. Buy a developer a beer!
