                               Psi4 1.3.2 release

  ==> Input File <==

--------------------------------------------------------------------------
memory 50 GB
molecule {
1 1
C           0.1676159    -0.0000556     0.0003022
C          -0.5633209    -1.2404106     0.0217454
C          -1.9799435    -1.2346867     0.0214529
C          -2.6917184     0.0009104    -0.0000751
C          -1.9790929     1.2360181    -0.0213154
C          -0.5624616     1.2408245    -0.0212277
C           1.6772224    -0.0005767     0.0007166
N           2.3977968    -1.1818185     0.0215180
N           2.3975758     1.1807750    -0.0183999
H          -0.0410065    -2.2163460     0.0386577
H          -2.5313232    -2.1949294     0.0380714
H          -3.8003997     0.0012921    -0.0002604
H          -2.5298404     2.1966223    -0.0379207
H          -0.0394792     2.2163993    -0.0377702
H           3.4492828    -1.1941138     0.0220712
H           1.9043794    -2.1071223     0.0384267
H           3.4490572     1.1919795    -0.0230197
H           1.9045185     2.1061819    -0.0399572
}
set {
basis STO-3G
}
gradient('BLYP')
--------------------------------------------------------------------------

    Molecular point group: c1
  Charge       = 1
  Multiplicity = 1
  Basis Set: STO-3G
    Blend: STO-3G
  Basis Set: (STO-3G AUX)
    Blend: DEF2-SVP-JKFIT

    Orbital Energies [Eh]
    ---------------------

    Doubly Occupied:

       1A    -14.119437     2A    -14.119360     3A    -10.092088
       4A     -9.956797     5A     -9.930409     6A     -9.930356
       7A     -9.917630     8A     -9.914331     9A     -9.914149
      10A     -1.040852    11A     -0.960474    12A     -0.883127
      13A     -0.806744    14A     -0.784407    15A     -0.738939
      16A     -0.678388    17A     -0.669195    18A     -0.636965
      19A     -0.631594    20A     -0.592458    21A     -0.571301
      22A     -0.540634    23A     -0.503035    24A     -0.500042
      25A     -0.489225    26A     -0.486190    27A     -0.421142
      28A     -0.417938    29A     -0.413623    30A     -0.360144
      31A     -0.326300    32A     -0.321484

  @DF-RKS Final Energy:  -376.54086211469655

   => Energetics <=

    Nuclear Repulsion Energy =            406.1328210673829062
    One-Electron Energy =               -1303.0042575314669193
    Two-Electron Energy =                 574.6219306982879971
    DFT Exchange-Correlation Energy =     -54.2913563489005426
    Empirical Dispersion Energy =           0.0000000000000000
    VV10 Nonlocal Energy =                  0.0000000000000000
    Total Energy =                       -376.5408621146965515

  Dipole Moment: [D]
     X:     6.2332      Y:    -0.0026      Z:    -0.0132     Total:     6.2332

    Molecular point group: c1

    Geometry (in Angstrom), charge = 1, multiplicity = 1:

       Center              X                  Y                   Z               Mass
    ------------   -----------------  -----------------  -----------------  -----------------
         C            0.186210983937    -0.000135152197    -0.000202730652    12.000000000000
         C           -0.544725816063    -1.240490152197     0.021240469348    12.000000000000
         C           -1.961348416063    -1.234766252197     0.020947969348    12.000000000000
         C           -2.673123316063     0.000830847803    -0.000580030652    12.000000000000
         C           -1.960497816063     1.235938547803    -0.021820330652    12.000000000000
         C           -0.543866516063     1.240744947803    -0.021732630652    12.000000000000
         C            1.695817483937    -0.000656252197     0.000211669348    12.000000000000
         N            2.416391883937    -1.181898052197     0.021013069348    14.003074004430
         N            2.416170883937     1.180695447803    -0.018904830652    14.003074004430
         H           -0.022411416063    -2.216425552197     0.038152769348     1.007825032230
         H           -2.512728116063    -2.195008952197     0.037566469348     1.007825032230
         H           -3.781804616063     0.001212547803    -0.000765330652     1.007825032230
         H           -2.511245316063     2.196542747803    -0.038425630652     1.007825032230
         H           -0.020884116063     2.216319747803    -0.038275130652     1.007825032230
         H            3.467877883937    -1.194193352197     0.021566269348     1.007825032230
         H            1.922974483937    -2.107201852197     0.037921769348     1.007825032230
         H            3.467652283937     1.191899947803    -0.023524630652     1.007825032230
         H            1.923113583937     2.106102347803    -0.040462130652     1.007825032230

  Basis Set: STO-3G
    Blend: STO-3G
  Basis Set: (STO-3G AUX)
    Blend: DEF2-SVP-JKFIT

  -Total Gradient:
     Atom            X                  Y                   Z
    ------   -----------------  -----------------  -----------------
       1       -0.000021296017     0.000059458772    -0.000022299917
       2       -0.000004560346     0.000098247324     0.000010908503
       3       -0.000110767705    -0.000182207951     0.000003510298
       4        0.000260034458     0.000007692202    -0.000002084878
       5       -0.000120670149     0.000171853213    -0.000000834752
       6        0.000002146631    -0.000071911283    -0.000005560524
       7       -0.000011881051    -0.000077527632    -0.000018625590
       8        0.000094012605     0.000101420408     0.000006816035
       9       -0.000100782134     0.000001324579     0.000116736121
      10       -0.000016486528    -0.000006351963    -0.000001657332
      11        0.000003664707    -0.000022417752     0.000003219518
      12        0.000021145014    -0.000000523773    -0.000001606881
      13        0.000002165560     0.000019867821     0.000001380086
      14       -0.000002554600    -0.000002247052     0.000001738032
      15        0.000014644417    -0.000038170369    -0.000008289387
      16       -0.000008239472     0.000000302053    -0.000004409149
      17        0.000006079773    -0.000078803449    -0.000039843309
      18       -0.000021933605     0.000019638322    -0.000039144816

*** Psi4 exiting successfully. Buy a developer a beer!
