                               Psi4 1.3.2 release

  ==> Input File <==

--------------------------------------------------------------------------
memory 50 GB
molecule {
1 1
C           0.1546859    -0.0039090    -0.0072895
C          -0.5841631    -0.5339481    -1.1236981
C          -2.0007353    -0.5273639    -1.1101948
C          -2.7053679     0.0046616     0.0097199
C          -1.9843916     0.5324263     1.1212082
C          -0.5677446     0.5305808     1.1177248
C           1.6642591    -0.0080686    -0.0163675
N           2.3924048     0.4966630     1.0467312
N           2.3766485    -0.5181202    -1.0875111
H          -0.0681446    -0.9544852    -2.0082421
H          -2.5580508    -0.9378556    -1.9746248
H          -3.8140358     0.0079558     0.0162814
H          -2.5289279     0.9461758     1.9922063
H          -0.0387439     0.9477953     1.9961460
H           3.4439441     0.4992175     1.0526321
H           1.9045749     0.8935298     1.8860461
H           3.4280178    -0.5217108    -1.1066453
H           1.8771782    -0.9085484    -1.9230005
}
set {
basis STO-3G
}
gradient('BLYP')
--------------------------------------------------------------------------

    Molecular point group: c1
  Charge       = 1
  Multiplicity = 1
  Basis Set: STO-3G
    Blend: STO-3G
  Basis Set: (STO-3G AUX)
    Blend: DEF2-SVP-JKFIT

    Orbital Energies [Eh]
    ---------------------

    Doubly Occupied:

       1A    -14.119438     2A    -14.119360     3A    -10.092104
       4A     -9.956798     5A     -9.930403     6A     -9.930352
       7A     -9.917646     8A     -9.914313     9A     -9.914133
      10A     -1.040810    11A     -0.960485    12A     -0.883120
      13A     -0.806755    14A     -0.784377    15A     -0.738968
      16A     -0.678363    17A     -0.669196    18A     -0.636948
      19A     -0.631614    20A     -0.592428    21A     -0.571294
      22A     -0.540650    23A     -0.503021    24A     -0.500028
      25A     -0.489234    26A     -0.486155    27A     -0.421232
      28A     -0.417931    29A     -0.413538    30A     -0.360148
      31A     -0.326313    32A     -0.321460

  @DF-RKS Final Energy:  -376.54086241503046

   => Energetics <=

    Nuclear Repulsion Energy =            406.1277173144811172
    One-Electron Energy =               -1302.9943810935465081
    Two-Electron Energy =                 574.6171017949609450
    DFT Exchange-Correlation Energy =     -54.2913004309260003
    Empirical Dispersion Energy =           0.0000000000000000
    VV10 Nonlocal Energy =                  0.0000000000000000
    Total Energy =                       -376.5408624150305172

  Dipole Moment: [D]
     X:     6.2332      Y:    -0.0042      Z:    -0.0430     Total:     6.2334

    Molecular point group: c1

    Geometry (in Angstrom), charge = 1, multiplicity = 1:

       Center              X                  Y                   Z               Mass
    ------------   -----------------  -----------------  -----------------  -----------------
         C            0.186412873042    -0.000637831441    -0.001115305970    12.000000000000
         C           -0.552436126958    -0.530676931441    -1.117523905970    12.000000000000
         C           -1.969008326958    -0.524092731441    -1.104020605970    12.000000000000
         C           -2.673640926958     0.007932768559     0.015894094030    12.000000000000
         C           -1.952664626958     0.535697468559     1.127382394030    12.000000000000
         C           -0.536017626958     0.533851968559     1.123898994030    12.000000000000
         C            1.695986073042    -0.004797431441    -0.010193305970    12.000000000000
         N            2.424131773042     0.499934168559     1.052905394030    14.003074004430
         N            2.408375473042    -0.514849031441    -1.081336905970    14.003074004430
         H           -0.036417626958    -0.951214031441    -2.002067905970     1.007825032230
         H           -2.526323826958    -0.934584431441    -1.968450605970     1.007825032230
         H           -3.782308826958     0.011226968559     0.022455594030     1.007825032230
         H           -2.497200926958     0.949446968559     1.998380494030     1.007825032230
         H           -0.007016926958     0.951066468559     2.002320194030     1.007825032230
         H            3.475671073042     0.502488668559     1.058806294030     1.007825032230
         H            1.936301873042     0.896800968559     1.892220294030     1.007825032230
         H            3.459744773042    -0.518439631441    -1.100471105970     1.007825032230
         H            1.908905173042    -0.905277231441    -1.916826305970     1.007825032230

  Basis Set: STO-3G
    Blend: STO-3G
  Basis Set: (STO-3G AUX)
    Blend: DEF2-SVP-JKFIT

  -Total Gradient:
     Atom            X                  Y                   Z
    ------   -----------------  -----------------  -----------------
       1        0.000013275439    -0.000036938575    -0.000014398717
       2        0.000022790783     0.000026482597    -0.000003245016
       3        0.000013400030     0.000006673584     0.000024341494
       4       -0.000040401069     0.000002280212    -0.000000047978
       5       -0.000004778382     0.000001084047     0.000003896646
       6        0.000013238231    -0.000009940826    -0.000025307373
       7       -0.000104784134     0.000052553187    -0.000010673024
       8        0.000098678328    -0.000049933826    -0.000093249511
       9       -0.000038321555    -0.000124037426     0.000035081322
      10        0.000010859853    -0.000004901288     0.000002092452
      11       -0.000000519899     0.000002348134     0.000001830546
      12       -0.000003312429     0.000001197502     0.000002107478
      13       -0.000003875528    -0.000001605309    -0.000000711133
      14        0.000006239654    -0.000003497378    -0.000005532793
      15        0.000011940052     0.000058802600     0.000105512987
      16       -0.000002339136     0.000000131364     0.000000777695
      17        0.000002410209     0.000049967219     0.000007883894
      18       -0.000010326537     0.000029316540    -0.000030366421

*** Psi4 exiting successfully. Buy a developer a beer!
