                               Psi4 1.3.2 release

  ==> Input File <==

--------------------------------------------------------------------------
memory 50 GB
molecule {
1 1
C           0.1613742    -0.0029434    -0.0043532
C          -0.5591649    -1.2191731     0.2555058
C          -1.9765892    -1.2066799     0.2610086
C          -2.6854346     0.0036665     0.0012183
C          -1.9726094     1.2113601    -0.2600645
C          -0.5551557     1.2171060    -0.2575835
C           1.6683514    -0.0049438     0.0012729
N           2.3726206    -1.1382371    -0.3602664
N           2.3726995     1.1287955     0.3614050
H          -0.0175807    -2.1560277     0.4907897
H          -2.5322415    -2.1404324     0.4749805
H          -3.7940363     0.0058834     0.0027652
H          -2.5248193     2.1478202    -0.4711661
H          -0.0102848     2.1518555    -0.4934973
H           3.4236344    -1.1827748    -0.3291615
H           1.8600290    -1.9723614    -0.7409566
H           3.4239161     1.1722133     0.3352837
H           1.8597656     1.9631149     0.7412066
}
set {
basis STO-3G
}
gradient('BLYP')
--------------------------------------------------------------------------

    Molecular point group: c1
  Charge       = 1
  Multiplicity = 1
  Basis Set: STO-3G
    Blend: STO-3G
  Basis Set: (STO-3G AUX)
    Blend: DEF2-SVP-JKFIT

    Orbital Energies [Eh]
    ---------------------

    Doubly Occupied:

       1A    -14.122494     2A    -14.122405     3A    -10.092004
       4A     -9.951262     5A     -9.925105     6A     -9.925035
       7A     -9.913732     8A     -9.910926     9A     -9.910716
      10A     -1.042086    11A     -0.963129    12A     -0.880526
      13A     -0.804912    14A     -0.780803    15A     -0.736882
      16A     -0.677845    17A     -0.666696    18A     -0.635121
      19A     -0.632084    20A     -0.593970    21A     -0.570245
      22A     -0.535717    23A     -0.510604    24A     -0.488655
      25A     -0.485953    26A     -0.480116    27A     -0.417414
      28A     -0.417232    29A     -0.410004    30A     -0.363123
      31A     -0.323914    32A     -0.318636

  @DF-RKS Final Energy:  -376.54215654467555

   => Energetics <=

    Nuclear Repulsion Energy =            406.3987692055987395
    One-Electron Energy =               -1303.6558634438831632
    Two-Electron Energy =                 575.0086682907501654
    DFT Exchange-Correlation Energy =     -54.2937305971412130
    Empirical Dispersion Energy =           0.0000000000000000
    VV10 Nonlocal Energy =                  0.0000000000000000
    Total Energy =                       -376.5421565446755494

  Dipole Moment: [D]
     X:     6.4488      Y:    -0.0106      Z:     0.0146     Total:     6.4488

    Molecular point group: c1

    Geometry (in Angstrom), charge = 1, multiplicity = 1:

       Center              X                  Y                   Z               Mass
    ------------   -----------------  -----------------  -----------------  -----------------
         C            0.185161425217    -0.001602963800    -0.004273259360    12.000000000000
         C           -0.535377674783    -1.217832663800     0.255585740640    12.000000000000
         C           -1.952801974783    -1.205339463800     0.261088540640    12.000000000000
         C           -2.661647374783     0.005006936200     0.001298240640    12.000000000000
         C           -1.948822174783     1.212700536200    -0.259984559360    12.000000000000
         C           -0.531368474783     1.218446436200    -0.257503559360    12.000000000000
         C            1.692138625217    -0.003603363800     0.001352840640    12.000000000000
         N            2.396407825217    -1.136896663800    -0.360186459360    14.003074004430
         N            2.396486725217     1.130135936200     0.361484940640    14.003074004430
         H            0.006206525217    -2.154687263800     0.490869640640     1.007825032230
         H           -2.508454274783    -2.139091963800     0.475060440640     1.007825032230
         H           -3.770249074783     0.007223836200     0.002845140640     1.007825032230
         H           -2.501032074783     2.149160636200    -0.471086159360     1.007825032230
         H            0.013502425217     2.153195936200    -0.493417359360     1.007825032230
         H            3.447421625217    -1.181434363800    -0.329081559360     1.007825032230
         H            1.883816225217    -1.971020963800    -0.740876659360     1.007825032230
         H            3.447703325217     1.173553736200     0.335363640640     1.007825032230
         H            1.883552825217     1.964455336200     0.741286540640     1.007825032230

  Basis Set: STO-3G
    Blend: STO-3G
  Basis Set: (STO-3G AUX)
    Blend: DEF2-SVP-JKFIT

  -Total Gradient:
     Atom            X                  Y                   Z
    ------   -----------------  -----------------  -----------------
       1        0.000044774302    -0.000066681158    -0.000866185816
       2        0.000017366589    -0.000180963369     0.000475215428
       3        0.000294279396     0.000437710982    -0.000122274543
       4       -0.000466064388     0.000000734395     0.000015710671
       5        0.000163326308    -0.000212150392     0.000039363235
       6       -0.000117040474     0.000093829444     0.000081356025
       7        0.000330570869    -0.000197890760     0.000748432711
       8       -0.000114610561    -0.000049932790    -0.000377250096
       9       -0.000104423978     0.000079103556     0.000058237321
      10        0.000017674409    -0.000028624064     0.000000499946
      11        0.000010217979     0.000042221056    -0.000007996201
      12       -0.000037984767     0.000018656407    -0.000006161629
      13       -0.000019599239    -0.000031624684     0.000013478745
      14       -0.000023655858    -0.000000469942    -0.000027010375
      15       -0.000004073474     0.000236925049     0.000054715602
      16        0.000009241941     0.000002023799    -0.000019300034
      17        0.000001292044    -0.000144657788    -0.000063805586
      18        0.000014046043     0.000002639432     0.000002568699

*** Psi4 exiting successfully. Buy a developer a beer!
