                               Psi4 1.3.2 release

  ==> Input File <==

--------------------------------------------------------------------------
memory 50 GB
molecule {
1 1
C           0.1534158     0.0602473    -0.0469857
C          -0.5529057    -0.8516848    -0.8984408
C          -1.9710785    -0.8821555    -0.8518728
C          -2.6790224    -0.0151810     0.0308448
C          -1.9711524     0.8794529     0.8861636
C          -0.5526459     0.9086519     0.8675147
C           1.6693748     0.0313437    -0.0268418
N           2.3391617    -0.2362399     1.1495836
N           2.3795034     0.1719388    -1.2012087
H           0.0008124    -1.5344677    -1.5719224
H          -2.5246954    -1.5883727    -1.5008828
H          -3.7866714    -0.0407498     0.0566228
H          -2.5252821     1.5506881     1.5708585
H           0.0008379     1.6053977     1.5268055
H           3.3898385    -0.2184894     1.2323317
H           1.7835360    -0.3804404     2.0312455
H           3.4281526     0.0810842    -1.2526663
H           1.8645936     0.4054543    -2.0882742
}
set {
basis STO-3G
}
gradient('BLYP')
--------------------------------------------------------------------------

    Molecular point group: c1
  Charge       = 1
  Multiplicity = 1
  Basis Set: STO-3G
    Blend: STO-3G
  Basis Set: (STO-3G AUX)
    Blend: DEF2-SVP-JKFIT

    Orbital Energies [Eh]
    ---------------------

    Doubly Occupied:

       1A    -14.129615     2A    -14.129376     3A    -10.095907
       4A     -9.944645     5A     -9.919003     6A     -9.918145
       7A     -9.906528     8A     -9.905209     9A     -9.904813
      10A     -1.046519    11A     -0.968319    12A     -0.876551
      13A     -0.801842    14A     -0.775544    15A     -0.736542
      16A     -0.678955    17A     -0.662796    18A     -0.642276
      19A     -0.627936    20A     -0.596432    21A     -0.568592
      22A     -0.528908    23A     -0.515076    24A     -0.481599
      25A     -0.481036    26A     -0.473114    27A     -0.415646
      28A     -0.410917    29A     -0.405136    30A     -0.368828
      31A     -0.319054    32A     -0.313407

  @DF-RKS Final Energy:  -376.53880856485432

   => Energetics <=

    Nuclear Repulsion Energy =            406.0248991212673673
    One-Electron Energy =               -1303.0239175512247130
    Two-Electron Energy =                 574.7531599029812241
    DFT Exchange-Correlation Energy =     -54.2929500378782066
    Empirical Dispersion Energy =           0.0000000000000000
    VV10 Nonlocal Energy =                  0.0000000000000000
    Total Energy =                       -376.5388085648543210

  Dipole Moment: [D]
     X:     6.9101      Y:    -0.0293      Z:     0.0236     Total:     6.9102

    Molecular point group: c1

    Geometry (in Angstrom), charge = 1, multiplicity = 1:

       Center              X                  Y                   Z               Mass
    ------------   -----------------  -----------------  -----------------  -----------------
         C            0.179254566611     0.055730761123    -0.037122722073    12.000000000000
         C           -0.527066933389    -0.856201338877    -0.888577822073    12.000000000000
         C           -1.945239733389    -0.886672038877    -0.842009822073    12.000000000000
         C           -2.653183633389    -0.019697538877     0.040707777927    12.000000000000
         C           -1.945313633389     0.874936361123     0.896026577927    12.000000000000
         C           -0.526807133389     0.904135361123     0.877377677927    12.000000000000
         C            1.695213566611     0.026827161123    -0.016978822073    12.000000000000
         N            2.365000466611    -0.240756438877     1.159446577927    14.003074004430
         N            2.405342166611     0.167422261123    -1.191345722073    14.003074004430
         H            0.026651166611    -1.538984238877    -1.562059422073     1.007825032230
         H           -2.498856633389    -1.592889238877    -1.491019822073     1.007825032230
         H           -3.760832633389    -0.045266338877     0.066485777927     1.007825032230
         H           -2.499443333389     1.546171561123     1.580721477927     1.007825032230
         H            0.026676666611     1.600881161123     1.536668477927     1.007825032230
         H            3.415677266611    -0.223005938877     1.242194677927     1.007825032230
         H            1.809374766611    -0.384956938877     2.041108477927     1.007825032230
         H            3.453991366611     0.076567661123    -1.242803322073     1.007825032230
         H            1.890432366611     0.400937761123    -2.078411222073     1.007825032230

  Basis Set: STO-3G
    Blend: STO-3G
  Basis Set: (STO-3G AUX)
    Blend: DEF2-SVP-JKFIT

  -Total Gradient:
     Atom            X                  Y                   Z
    ------   -----------------  -----------------  -----------------
       1       -0.000428770992     0.002304620590    -0.005348603118
       2        0.000224519296    -0.003406365498     0.002927732561
       3        0.000126122877     0.000189709234     0.000170867169
       4        0.000148345378    -0.000014532128    -0.000011157424
       5       -0.000056887591     0.000079332782     0.000078351955
       6        0.000132737846     0.000150714050     0.000143134484
       7       -0.000284801441     0.005169686345     0.003095885282
       8        0.000206520158    -0.004469298295    -0.001365791273
       9       -0.000133455283     0.000094214951    -0.000032658315
      10        0.000012127988    -0.000042756772    -0.000054510139
      11        0.000060039581    -0.000003704621    -0.000008217755
      12        0.000009608834     0.000020584687     0.000020145395
      13        0.000017489399     0.000014691615     0.000017582762
      14       -0.000035069384     0.000041799230     0.000028530636
      15       -0.000005548356    -0.000084478387     0.000302972275
      16        0.000000721765     0.000011126025    -0.000045775942
      17        0.000019501383    -0.000032985348     0.000087044237
      18       -0.000012955677    -0.000014369189    -0.000021163881

*** Psi4 exiting successfully. Buy a developer a beer!
