                               Psi4 1.3.2 release

  ==> Input File <==

--------------------------------------------------------------------------
memory 50 GB
molecule {
1 1
C           0.1493859    -0.0012172     0.0045387
C          -0.5585313    -1.0344368     0.6935878
C          -1.9793962    -1.0225022     0.6810861
C          -2.6817922     0.0061927    -0.0093235
C          -1.9673159     1.0311906    -0.6928800
C          -0.5463961     1.0357097    -0.6913952
C           1.6808562    -0.0051112     0.0119087
N           2.3722613    -0.6698422    -0.9757421
N           2.3652483     0.6569566     1.0061860
H          -0.0095359    -1.8327561     1.2292897
H          -2.5365677    -1.8187308     1.2120423
H          -3.7896028     0.0090763    -0.0147446
H          -2.5151477     1.8302802    -1.2292322
H           0.0120592     1.8309790    -1.2218271
H           3.4257566    -0.7083065    -1.0224792
H           1.8319032    -1.1713301    -1.7276012
H           3.4184271     0.6884312     1.0639209
H           1.8199829     1.1596731     1.7536811
}
set {
basis STO-3G
}
gradient('BLYP')
--------------------------------------------------------------------------

    Molecular point group: c1
  Charge       = 1
  Multiplicity = 1
  Basis Set: STO-3G
    Blend: STO-3G
  Basis Set: (STO-3G AUX)
    Blend: DEF2-SVP-JKFIT

    Orbital Energies [Eh]
    ---------------------

    Doubly Occupied:

       1A    -14.138306     2A    -14.138221     3A    -10.102657
       4A     -9.938291     5A     -9.911953     6A     -9.911917
       7A     -9.899066     8A     -9.898732     9A     -9.897383
      10A     -1.053061    11A     -0.974619    12A     -0.871874
      13A     -0.798729    14A     -0.769541    15A     -0.738062
      16A     -0.681468    17A     -0.662419    18A     -0.645307
      19A     -0.625333    20A     -0.601666    21A     -0.565998
      22A     -0.522838    23A     -0.517221    24A     -0.477137
      25A     -0.475363    26A     -0.469001    27A     -0.411916
      28A     -0.404721    29A     -0.399530    30A     -0.376210
      31A     -0.312783    32A     -0.307181

  @DF-RKS Final Energy:  -376.53473830653775

   => Energetics <=

    Nuclear Repulsion Energy =            405.1919935685212408
    One-Electron Energy =               -1301.4504162240627920
    Two-Electron Energy =                 574.0150399824134411
    DFT Exchange-Correlation Energy =     -54.2913556334096370
    Empirical Dispersion Energy =           0.0000000000000000
    VV10 Nonlocal Energy =                  0.0000000000000000
    Total Energy =                       -376.5347383065378040

  Dipole Moment: [D]
     X:     7.5138      Y:    -0.0238      Z:     0.0395     Total:     7.5140

    Molecular point group: c1

    Geometry (in Angstrom), charge = 1, multiplicity = 1:

       Center              X                  Y                   Z               Mass
    ------------   -----------------  -----------------  -----------------  -----------------
         C            0.172745782659    -0.000595165872     0.000904917362    12.000000000000
         C           -0.535171417341    -1.033814765872     0.689954017362    12.000000000000
         C           -1.956036317341    -1.021880165872     0.677452317362    12.000000000000
         C           -2.658432317341     0.006814734128    -0.012957282638    12.000000000000
         C           -1.943956017341     1.031812634128    -0.696513782638    12.000000000000
         C           -0.523036217341     1.036331734128    -0.695028982638    12.000000000000
         C            1.704216082659    -0.004489165872     0.008274917362    12.000000000000
         N            2.395621182659    -0.669220165872    -0.979375882638    14.003074004430
         N            2.388608182659     0.657578634128     1.002552217362    14.003074004430
         H            0.013823982659    -1.832134065872     1.225655917362     1.007825032230
         H           -2.513207817341    -1.818108765872     1.208408517362     1.007825032230
         H           -3.766242917341     0.009698334128    -0.018378382638     1.007825032230
         H           -2.491787817341     1.830902234128    -1.232865982638     1.007825032230
         H            0.035419082659     1.831601034128    -1.225460882638     1.007825032230
         H            3.449116482659    -0.707684465872    -1.026112982638     1.007825032230
         H            1.855263082659    -1.170708065872    -1.731234982638     1.007825032230
         H            3.441786982659     0.689053234128     1.060287117362     1.007825032230
         H            1.843342782659     1.160295134128     1.750047317362     1.007825032230

  Basis Set: STO-3G
    Blend: STO-3G
  Basis Set: (STO-3G AUX)
    Blend: DEF2-SVP-JKFIT

  -Total Gradient:
     Atom            X                  Y                   Z
    ------   -----------------  -----------------  -----------------
       1        0.000022171932    -0.000003706562     0.000060450748
       2       -0.000014732330     0.000052056986    -0.000015562136
       3       -0.000059242494    -0.000060499235     0.000027033553
       4        0.000106026442    -0.000007839199     0.000011469345
       5       -0.000032282487     0.000069474880    -0.000058053919
       6       -0.000048458236    -0.000021842148     0.000024975525
       7       -0.000135408404    -0.000049317647    -0.000044676536
       8        0.000145963300     0.000116569277     0.000089475389
       9        0.000013533043     0.000001263112    -0.000064467896
      10       -0.000007221374    -0.000001533532    -0.000004161508
      11       -0.000000352427    -0.000007041844     0.000005551414
      12        0.000007901926     0.000000241219     0.000000488569
      13       -0.000005064292     0.000006702048    -0.000003399408
      14       -0.000003746475    -0.000005269656     0.000000156573
      15        0.000000488072    -0.000066518045    -0.000073641286
      16       -0.000003436321    -0.000000346931     0.000027965567
      17       -0.000000835755    -0.000010552636     0.000016543703
      18       -0.000007494156    -0.000011689896    -0.000000534590

*** Psi4 exiting successfully. Buy a developer a beer!
