                               Psi4 1.3.2 release

  ==> Input File <==

--------------------------------------------------------------------------
memory 50 GB
molecule {
1 1
C           0.1675205     0.0021577     0.0151804
C          -0.5579112    -1.2316562     0.1630357
C          -1.9747996    -1.2249540     0.1609202
C          -2.6854992     0.0012381    -0.0009600
C          -1.9739347     1.2270879    -0.1607737
C          -0.5570106     1.2336978    -0.1550956
C           1.6746815     0.0007692    -0.0038664
N           2.3850956    -1.1721948    -0.1899545
N           2.3904332     1.1669802     0.2006839
H          -0.0256339    -2.1893079     0.3223591
H          -2.5278831    -2.1757088     0.2897517
H          -3.7941630     0.0010929    -0.0049074
H          -2.5262000     2.1770325    -0.2987058
H          -0.0236585     2.1904194    -0.3166150
H           3.4368721    -1.1951293    -0.1875292
H           1.8838110    -2.0542323    -0.4594132
H           3.4417421     1.1905908     0.1736102
H           1.8921610     2.0541795     0.4581354
}
set {
basis STO-3G
}
gradient('BLYP')
--------------------------------------------------------------------------

    Molecular point group: c1
  Charge       = 1
  Multiplicity = 1
  Basis Set: STO-3G
    Blend: STO-3G
  Basis Set: (STO-3G AUX)
    Blend: DEF2-SVP-JKFIT

    Orbital Energies [Eh]
    ---------------------

    Doubly Occupied:

       1A    -14.120503     2A    -14.120342     3A    -10.091600
       4A     -9.954359     5A     -9.928101     6A     -9.927970
       7A     -9.916220     8A     -9.913039     9A     -9.912852
      10A     -1.041119    11A     -0.961509    12A     -0.882069
      13A     -0.806045    14A     -0.782943    15A     -0.737817
      16A     -0.677811    17A     -0.668250    18A     -0.634672
      19A     -0.632565    20A     -0.593134    21A     -0.570764
      22A     -0.538597    23A     -0.507225    24A     -0.493890
      25A     -0.487809    26A     -0.483552    27A     -0.419621
      28A     -0.417647    29A     -0.412100    30A     -0.361419
      31A     -0.325399    32A     -0.320435

  @DF-RKS Final Energy:  -376.54167733251677

   => Energetics <=

    Nuclear Repulsion Energy =            406.3164401628689006
    One-Electron Energy =               -1303.4270097365158563
    Two-Electron Energy =                 574.8614716090869479
    DFT Exchange-Correlation Energy =     -54.2925793679568685
    Empirical Dispersion Energy =           0.0000000000000000
    VV10 Nonlocal Energy =                  0.0000000000000000
    Total Energy =                       -376.5416773325168265

  Dipole Moment: [D]
     X:     6.3086      Y:     0.0100      Z:    -0.0873     Total:     6.3092

    Molecular point group: c1

    Geometry (in Angstrom), charge = 1, multiplicity = 1:

       Center              X                  Y                   Z               Mass
    ------------   -----------------  -----------------  -----------------  -----------------
         C            0.186025811865     0.001943008999     0.012305895557    12.000000000000
         C           -0.539405888135    -1.231870891001     0.160161195557    12.000000000000
         C           -1.956294288135    -1.225168691001     0.158045695557    12.000000000000
         C           -2.666993888135     0.001023408999    -0.003834504443    12.000000000000
         C           -1.955429388135     1.226873208999    -0.163648204443    12.000000000000
         C           -0.538505288135     1.233483108999    -0.157970104443    12.000000000000
         C            1.693186811865     0.000554508999    -0.006740904443    12.000000000000
         N            2.403600911865    -1.172409491001    -0.192829004443    14.003074004430
         N            2.408938511865     1.166765508999     0.197809395557    14.003074004430
         H           -0.007128588135    -2.189522591001     0.319484595557     1.007825032230
         H           -2.509377788135    -2.175923491001     0.286877195557     1.007825032230
         H           -3.775657688135     0.000878208999    -0.007781904443     1.007825032230
         H           -2.507694688135     2.176817808999    -0.301580304443     1.007825032230
         H           -0.005153188135     2.190204708999    -0.319489504443     1.007825032230
         H            3.455377411865    -1.195343991001    -0.190403704443     1.007825032230
         H            1.902316311865    -2.054446991001    -0.462287704443     1.007825032230
         H            3.460247411865     1.190376108999     0.170735695557     1.007825032230
         H            1.910666311865     2.053964808999     0.455260895557     1.007825032230

  Basis Set: STO-3G
    Blend: STO-3G
  Basis Set: (STO-3G AUX)
    Blend: DEF2-SVP-JKFIT

  -Total Gradient:
     Atom            X                  Y                   Z
    ------   -----------------  -----------------  -----------------
       1        0.000029285225     0.000136820534     0.003221157785
       2       -0.000016170101    -0.000122503365    -0.001646732731
       3       -0.000061626701    -0.000092026526     0.000014085140
       4        0.000101209523     0.000001326847    -0.000000625366
       5       -0.000035379409     0.000046603493    -0.000006600778
       6        0.000015509260    -0.000018938982     0.000008670404
       7        0.000115425453     0.000301498012    -0.003311104146
       8       -0.000020127378    -0.000277280844     0.001632357746
       9       -0.000112261568     0.000137589880     0.000116062695
      10       -0.000003439368     0.000001547812    -0.000003777504
      11       -0.000001901870    -0.000008768956     0.000002917669
      12        0.000007646310    -0.000003609159     0.000000190956
      13        0.000002530852     0.000006640329    -0.000002726655
      14       -0.000014870784     0.000005577006    -0.000001543936
      15       -0.000008602000    -0.000010152110     0.000022847647
      16       -0.000000901318    -0.000015300979     0.000040016680
      17       -0.000007798159    -0.000116321073    -0.000053602281
      18        0.000001957798     0.000026108019    -0.000031229608

*** Psi4 exiting successfully. Buy a developer a beer!
