                               Psi4 1.3.2 release

  ==> Input File <==

--------------------------------------------------------------------------
memory 50 GB
molecule {
1 1
C           0.1549037     0.0197502    -0.0173354
C          -0.5782072    -0.3964314    -1.1834547
C          -1.9949636    -0.4004283    -1.1643819
C          -2.6985559    -0.0035545     0.0113634
C          -1.9788808     0.4013511     1.1744033
C          -0.5619704     0.4146240     1.1661917
C           1.6621917     0.0046827    -0.0214908
N           2.3872020     0.6758125     0.9479220
N           2.3641605    -0.7112807    -0.9746394
H          -0.0525966    -0.6772585    -2.1166537
H          -2.5541760    -0.7091481    -2.0690175
H          -3.8071604    -0.0112799     0.0216771
H          -2.5247033     0.6989903     2.0908727
H          -0.0223147     0.6991239     2.0900470
H           3.4389357     0.6647872     0.9717063
H           1.8983838     1.3220241     1.6152887
H           3.4156283    -0.7214797    -1.0043998
H           1.8536670    -1.3232408    -1.6576947
}
set {
basis STO-3G
}
gradient('BLYP')
--------------------------------------------------------------------------

    Molecular point group: c1
  Charge       = 1
  Multiplicity = 1
  Basis Set: STO-3G
    Blend: STO-3G
  Basis Set: (STO-3G AUX)
    Blend: DEF2-SVP-JKFIT

    Orbital Energies [Eh]
    ---------------------

    Doubly Occupied:

       1A    -14.120493     2A    -14.120254     3A    -10.091634
       4A     -9.954436     5A     -9.928091     6A     -9.928042
       7A     -9.916248     8A     -9.913040     9A     -9.912854
      10A     -1.041100    11A     -0.961448    12A     -0.882083
      13A     -0.806072    14A     -0.782936    15A     -0.737853
      16A     -0.677751    17A     -0.668264    18A     -0.634687
      19A     -0.632587    20A     -0.592863    21A     -0.570807
      22A     -0.538661    23A     -0.507186    24A     -0.493914
      25A     -0.487847    26A     -0.483571    27A     -0.419728
      28A     -0.417629    29A     -0.412059    30A     -0.361376
      31A     -0.325423    32A     -0.320430

  @DF-RKS Final Energy:  -376.54167427915195

   => Energetics <=

    Nuclear Repulsion Energy =            406.3005835148749156
    One-Electron Energy =               -1303.3954008180976416
    Two-Electron Energy =                 574.8455927254588005
    DFT Exchange-Correlation Energy =     -54.2924497013879730
    Empirical Dispersion Energy =           0.0000000000000000
    VV10 Nonlocal Energy =                  0.0000000000000000
    Total Energy =                       -376.5416742791518914

  Dipole Moment: [D]
     X:     6.3094      Y:    -0.0052      Z:    -0.0563     Total:     6.3097

    Molecular point group: c1

    Geometry (in Angstrom), charge = 1, multiplicity = 1:

       Center              X                  Y                   Z               Mass
    ------------   -----------------  -----------------  -----------------  -----------------
         C            0.185905305150     0.020366913225    -0.010321593622    12.000000000000
         C           -0.547205594850    -0.395814686775    -1.176440893622    12.000000000000
         C           -1.963961994850    -0.399811586775    -1.157368093622    12.000000000000
         C           -2.667554294850    -0.002937786775     0.018377206378    12.000000000000
         C           -1.947879194850     0.401967813225     1.181417106378    12.000000000000
         C           -0.530968794850     0.415240713225     1.173205506378    12.000000000000
         C            1.693193305150     0.005299413225    -0.014476993622    12.000000000000
         N            2.418203605150     0.676429213225     0.954935806378    14.003074004430
         N            2.395162105150    -0.710663986775    -0.967625593622    14.003074004430
         H           -0.021594994850    -0.676641786775    -2.109639893622     1.007825032230
         H           -2.523174394850    -0.708531386775    -2.062003693622     1.007825032230
         H           -3.776158794850    -0.010663186775     0.028690906378     1.007825032230
         H           -2.493701694850     0.699607013225     2.097886506378     1.007825032230
         H            0.008686905150     0.699740613225     2.097060806378     1.007825032230
         H            3.469937305150     0.665403913225     0.978720106378     1.007825032230
         H            1.929385405150     1.322640813225     1.622302506378     1.007825032230
         H            3.446629905150    -0.720862986775    -0.997385993622     1.007825032230
         H            1.884668605150    -1.322624086775    -1.650680893622     1.007825032230

  Basis Set: STO-3G
    Blend: STO-3G
  Basis Set: (STO-3G AUX)
    Blend: DEF2-SVP-JKFIT

  -Total Gradient:
     Atom            X                  Y                   Z
    ------   -----------------  -----------------  -----------------
       1       -0.000061556385     0.001399444397    -0.000532676038
       2        0.000059586176    -0.001541082687     0.000376356883
       3        0.000137723935     0.000099857900     0.000196833440
       4       -0.000175882314    -0.000025415628    -0.000011735125
       5       -0.000009741071     0.000045755026     0.000054598234
       6       -0.000029667909    -0.000077566095    -0.000090261002
       7       -0.000329610386     0.001525830669    -0.000994554382
       8        0.000548662229    -0.001711859640     0.000632476578
       9       -0.000155125835    -0.000077348644     0.000041730086
      10        0.000026245751    -0.000036304323    -0.000005285877
      11        0.000009391425     0.000013599579     0.000016439871
      12       -0.000012511374    -0.000000409764     0.000023784411
      13       -0.000014552358     0.000003710504    -0.000005932409
      14       -0.000029655402     0.000027011250    -0.000016965842
      15        0.000025975616     0.000260251597     0.000295727904
      16        0.000022950808    -0.000046913950    -0.000042413351
      17        0.000008994151     0.000117572625     0.000109645719
      18       -0.000029128011     0.000023767473    -0.000045971886

*** Psi4 exiting successfully. Buy a developer a beer!
