                               Psi4 1.3.2 release

  ==> Input File <==

--------------------------------------------------------------------------
memory 50 GB
molecule {
1 1
C           0.1595912    -0.0295967     0.0425100
C          -0.5591471    -1.1924312    -0.3885926
C          -1.9780025    -1.1635172    -0.4106325
C          -2.6756301     0.0128806    -0.0090316
C          -1.9563799     1.1731863     0.4027063
C          -0.5374061     1.1677901     0.4107463
C           1.6754763    -0.0248722    -0.0056279
N           2.3957716    -0.9540700     0.7166831
N           2.3389766     0.9690248    -0.6950347
H          -0.0136368    -2.0994625    -0.7143516
H          -2.5396833    -2.0564516    -0.7476763
H          -3.7836907     0.0278623    -0.0225734
H          -2.5026472     2.0851640     0.7131173
H           0.0240748     2.0658459     0.7340340
H           3.4462816    -1.0277938     0.6713001
H           1.8791892    -1.6817118     1.2740062
H           3.3888959     1.0595601    -0.7048497
H           1.7833996     1.6544750    -1.2677534
}
set {
basis STO-3G
}
gradient('BLYP')
--------------------------------------------------------------------------

    Molecular point group: c1
  Charge       = 1
  Multiplicity = 1
  Basis Set: STO-3G
    Blend: STO-3G
  Basis Set: (STO-3G AUX)
    Blend: DEF2-SVP-JKFIT

    Orbital Energies [Eh]
    ---------------------

    Doubly Occupied:

       1A    -14.129749     2A    -14.129562     3A    -10.095992
       4A     -9.944496     5A     -9.918632     6A     -9.918191
       7A     -9.906424     8A     -9.905082     9A     -9.904690
      10A     -1.046624    11A     -0.968417    12A     -0.876423
      13A     -0.801777    14A     -0.775344    15A     -0.736583
      16A     -0.679052    17A     -0.662698    18A     -0.642265
      19A     -0.627897    20A     -0.596636    21A     -0.568504
      22A     -0.528779    23A     -0.515057    24A     -0.481579
      25A     -0.480778    26A     -0.473051    27A     -0.415536
      28A     -0.410882    29A     -0.404942    30A     -0.368951
      31A     -0.318993    32A     -0.313230

  @DF-RKS Final Energy:  -376.53878148234458

   => Energetics <=

    Nuclear Repulsion Energy =            405.9483416725659595
    One-Electron Energy =               -1302.8737055700380552
    Two-Electron Energy =                 574.6794352224173963
    DFT Exchange-Correlation Energy =     -54.2928528072898757
    Empirical Dispersion Energy =           0.0000000000000000
    VV10 Nonlocal Energy =                  0.0000000000000000
    Total Energy =                       -376.5387814823446320

  Dipole Moment: [D]
     X:     6.9181      Y:    -0.0517      Z:    -0.1828     Total:     6.9207

    Molecular point group: c1

    Geometry (in Angstrom), charge = 1, multiplicity = 1:

       Center              X                  Y                   Z               Mass
    ------------   -----------------  -----------------  -----------------  -----------------
         C            0.179922157996    -0.025949357451     0.036374818922    12.000000000000
         C           -0.538816142004    -1.188783857451    -0.394727781078    12.000000000000
         C           -1.957671542004    -1.159869857451    -0.416767681078    12.000000000000
         C           -2.655299142004     0.016527942549    -0.015166781078    12.000000000000
         C           -1.936048942004     1.176833642549     0.396571118922    12.000000000000
         C           -0.517075142004     1.171437442549     0.404611118922    12.000000000000
         C            1.695807257996    -0.021224857451    -0.011763081078    12.000000000000
         N            2.416102557996    -0.950422657451     0.710547918922    14.003074004430
         N            2.359307557996     0.972672142549    -0.701169881078    14.003074004430
         H            0.006694157996    -2.095815157451    -0.720486781078     1.007825032230
         H           -2.519352342004    -2.052804257451    -0.753811481078     1.007825032230
         H           -3.763359742004     0.031509642549    -0.028708581078     1.007825032230
         H           -2.482316242004     2.088811342549     0.706982118922     1.007825032230
         H            0.044405757996     2.069493242549     0.727898818922     1.007825032230
         H            3.466612557996    -1.024146457451     0.665164918922     1.007825032230
         H            1.899520157996    -1.678064457451     1.267871018922     1.007825032230
         H            3.409226857996     1.063207442549    -0.710984881078     1.007825032230
         H            1.803730557996     1.658122342549    -1.273888581078     1.007825032230

  Basis Set: STO-3G
    Blend: STO-3G
  Basis Set: (STO-3G AUX)
    Blend: DEF2-SVP-JKFIT

  -Total Gradient:
     Atom            X                  Y                   Z
    ------   -----------------  -----------------  -----------------
       1        0.000116071489    -0.001021983999     0.007813661228
       2       -0.000150741945     0.001722519716    -0.004166131639
       3       -0.000083521964    -0.000134973737    -0.000051359294
       4        0.000079753648     0.000007510831     0.000005697802
       5        0.000020365789    -0.000065617921    -0.000026083709
       6        0.000107261467     0.000102294121     0.000063180234
       7       -0.000150381787    -0.003560233159    -0.007350872577
       8        0.000059303433     0.002911458930     0.003704827504
       9       -0.000000852424    -0.000007862196     0.000113814168
      10       -0.000022213234     0.000003011083    -0.000006452831
      11       -0.000008596230    -0.000010151583    -0.000001783303
      12        0.000005959608    -0.000014243720    -0.000006373322
      13        0.000016512802     0.000002659119     0.000001643264
      14        0.000008741991     0.000008959899    -0.000008113634
      15        0.000008193755     0.000051895805    -0.000033116488
      16       -0.000009874226     0.000004715108     0.000014098462
      17        0.000000098410     0.000015587679    -0.000051066881
      18       -0.000000401490    -0.000023648111    -0.000013423285

*** Psi4 exiting successfully. Buy a developer a beer!
