                               Psi4 1.3.2 release

  ==> Input File <==

--------------------------------------------------------------------------
memory 50 GB
molecule {
1 1
C           0.1665002    -0.0009122     0.0030591
C          -0.5519873    -1.2270553    -0.2114607
C          -1.9694713    -1.2181988    -0.2169143
C          -2.6790823     0.0002684    -0.0005999
C          -1.9689621     1.2183600     0.2163380
C          -0.5514800     1.2263216     0.2128541
C           1.6734669    -0.0009297    -0.0008434
N           2.3780849    -1.1192193     0.4041780
N           2.3765175     1.1191429    -0.4036211
H          -0.0085387    -2.1706825    -0.4128841
H          -2.5237451    -2.1600417    -0.3963472
H          -3.7876767     0.0006721    -0.0015399
H          -2.5228937     2.1607826     0.3937843
H          -0.0077956     2.1698636     0.4140130
H           3.4289057    -1.1675176     0.3720381
H           1.8643823    -1.9410223     0.8093844
H           3.4273636     1.1686456    -0.3741746
H           1.8613709     1.9402210    -0.8084470
}
set {
basis STO-3G
}
gradient('BLYP')
--------------------------------------------------------------------------

    Molecular point group: c1
  Charge       = 1
  Multiplicity = 1
  Basis Set: STO-3G
    Blend: STO-3G
  Basis Set: (STO-3G AUX)
    Blend: DEF2-SVP-JKFIT

    Orbital Energies [Eh]
    ---------------------

    Doubly Occupied:

       1A    -14.122449     2A    -14.122368     3A    -10.092015
       4A     -9.951291     5A     -9.925146     6A     -9.925097
       7A     -9.913727     8A     -9.910993     9A     -9.910782
      10A     -1.041980    11A     -0.963121    12A     -0.880571
      13A     -0.804911    14A     -0.780887    15A     -0.736897
      16A     -0.677749    17A     -0.666783    18A     -0.635247
      19A     -0.632087    20A     -0.593845    21A     -0.570260
      22A     -0.535747    23A     -0.510703    24A     -0.488695
      25A     -0.485969    26A     -0.480139    27A     -0.417363
      28A     -0.417234    29A     -0.410181    30A     -0.363052
      31A     -0.323926    32A     -0.318699

  @DF-RKS Final Energy:  -376.54215799360327

   => Energetics <=

    Nuclear Repulsion Energy =            406.4165748424938442
    One-Electron Energy =               -1303.6903475759270350
    Two-Electron Energy =                 575.0253390304849290
    DFT Exchange-Correlation Energy =     -54.2937242906551205
    Empirical Dispersion Energy =           0.0000000000000000
    VV10 Nonlocal Energy =                  0.0000000000000000
    Total Energy =                       -376.5421579936033254

  Dipole Moment: [D]
     X:     6.4444      Y:    -0.0009      Z:    -0.0092     Total:     6.4444

    Molecular point group: c1

    Geometry (in Angstrom), charge = 1, multiplicity = 1:

       Center              X                  Y                   Z               Mass
    ------------   -----------------  -----------------  -----------------  -----------------
         C            0.185068786166    -0.000698336749     0.002788300644    12.000000000000
         C           -0.533418713834    -1.226841436749    -0.211731499356    12.000000000000
         C           -1.950902713834    -1.217984936749    -0.217185099356    12.000000000000
         C           -2.660513713834     0.000482263251    -0.000870699356    12.000000000000
         C           -1.950393513834     1.218573863251     0.216067200644    12.000000000000
         C           -0.532911413834     1.226535463251     0.212583300644    12.000000000000
         C            1.692035486166    -0.000715836749    -0.001114199356    12.000000000000
         N            2.396653486166    -1.119005436749     0.403907200644    14.003074004430
         N            2.395086086166     1.119356763251    -0.403891899356    14.003074004430
         H            0.010029886166    -2.170468636749    -0.413154899356     1.007825032230
         H           -2.505176513834    -2.159827836749    -0.396617999356     1.007825032230
         H           -3.769108113834     0.000885963251    -0.001810699356     1.007825032230
         H           -2.504325113834     2.160996463251     0.393513500644     1.007825032230
         H            0.010772986166     2.170077463251     0.413742200644     1.007825032230
         H            3.447474286166    -1.167303736749     0.371767300644     1.007825032230
         H            1.882950886166    -1.940808436749     0.809113600644     1.007825032230
         H            3.445932186166     1.168859463251    -0.374445399356     1.007825032230
         H            1.879939486166     1.940434863251    -0.808717799356     1.007825032230

  Basis Set: STO-3G
    Blend: STO-3G
  Basis Set: (STO-3G AUX)
    Blend: DEF2-SVP-JKFIT

  -Total Gradient:
     Atom            X                  Y                   Z
    ------   -----------------  -----------------  -----------------
       1        0.000010150053    -0.000043067424     0.000652005340
       2       -0.000001063014     0.000060441801    -0.000335062226
       3        0.000003862466     0.000003725635     0.000003066619
       4       -0.000008092741    -0.000000169773    -0.000000097560
       5       -0.000001488188     0.000003023546    -0.000001582703
       6        0.000003362867    -0.000010492499    -0.000002329068
       7        0.000118154718    -0.000095991031    -0.000626522133
       8       -0.000087887338     0.000028579939     0.000449475374
       9       -0.000006950545    -0.000042131194    -0.000158091295
      10       -0.000000432409    -0.000006243117    -0.000000674031
      11       -0.000001400518    -0.000003508248     0.000002468816
      12       -0.000004243774     0.000000484953     0.000000137905
      13       -0.000001970543     0.000004288218    -0.000002761193
      14       -0.000000513647     0.000005764657    -0.000001730748
      15        0.000003311653     0.000096691349    -0.000055925495
      16       -0.000005668721    -0.000027166699    -0.000018152251
      17       -0.000001004663     0.000001684479     0.000049938248
      18       -0.000004534901     0.000024637312     0.000046074816

*** Psi4 exiting successfully. Buy a developer a beer!
