                               Psi4 1.3.2 release

  ==> Input File <==

--------------------------------------------------------------------------
memory 50 GB
molecule {
1 1
C           0.1485175     0.0598058     0.0473801
C          -0.5631476    -0.8199720     0.9277292
C          -1.9814196    -0.8495310     0.8812777
C          -2.6868890    -0.0120177    -0.0313135
C          -1.9740157     0.8500112    -0.9154993
C          -0.5553655     0.8770211    -0.8965876
C           1.6644504     0.0257547     0.0301251
N           2.3336025    -0.2836553    -1.1363955
N           2.3737718     0.2003244     1.2006259
H          -0.0122016    -1.4809026     1.6248073
H          -2.5370133    -1.5319879     1.5536108
H          -3.7945823    -0.0355275    -0.0579079
H          -2.5253256     1.4984965    -1.6239513
H           0.0001027     1.5490262    -1.5794483
H           3.3844701    -0.2734110    -1.2176017
H           1.7784148    -0.4571075    -2.0130353
H           3.4225338     0.1131111     1.2556776
H           1.8593319     0.4715266     2.0771823
}
set {
basis STO-3G
}
gradient('BLYP')
--------------------------------------------------------------------------

    Molecular point group: c1
  Charge       = 1
  Multiplicity = 1
  Basis Set: STO-3G
    Blend: STO-3G
  Basis Set: (STO-3G AUX)
    Blend: DEF2-SVP-JKFIT

    Orbital Energies [Eh]
    ---------------------

    Doubly Occupied:

       1A    -14.129707     2A    -14.129427     3A    -10.095998
       4A     -9.944607     5A     -9.918887     6A     -9.918084
       7A     -9.906521     8A     -9.905136     9A     -9.904749
      10A     -1.046517    11A     -0.968383    12A     -0.876478
      13A     -0.801862    14A     -0.775360    15A     -0.736611
      16A     -0.678994    17A     -0.662799    18A     -0.642171
      19A     -0.627917    20A     -0.596576    21A     -0.568526
      22A     -0.528898    23A     -0.515005    24A     -0.481665
      25A     -0.480760    26A     -0.473142    27A     -0.415576
      28A     -0.411066    29A     -0.404880    30A     -0.368904
      31A     -0.319077    32A     -0.313265

  @DF-RKS Final Energy:  -376.53881002102980

   => Energetics <=

    Nuclear Repulsion Energy =            405.9901195519589123
    One-Electron Energy =               -1302.9559098709171394
    Two-Electron Energy =                 574.7197658784219811
    DFT Exchange-Correlation Energy =     -54.2927855804936215
    Empirical Dispersion Energy =           0.0000000000000000
    VV10 Nonlocal Energy =                  0.0000000000000000
    Total Energy =                       -376.5388100210298035

  Dipole Moment: [D]
     X:     6.9158      Y:    -0.0374      Z:    -0.0171     Total:     6.9159

    Molecular point group: c1

    Geometry (in Angstrom), charge = 1, multiplicity = 1:

       Center              X                  Y                   Z               Mass
    ------------   -----------------  -----------------  -----------------  -----------------
         C            0.180469698210     0.057674489163     0.035517786832    12.000000000000
         C           -0.531195401790    -0.822103310837     0.915866886832    12.000000000000
         C           -1.949467401790    -0.851662310837     0.869415386832    12.000000000000
         C           -2.654936801790    -0.014149010837    -0.043175813168    12.000000000000
         C           -1.942063501790     0.847879889163    -0.927361613168    12.000000000000
         C           -0.523413301790     0.874889789163    -0.908449913168    12.000000000000
         C            1.696402598210     0.023623389163     0.018262786832    12.000000000000
         N            2.365554698210    -0.285786610837    -1.148257813168    14.003074004430
         N            2.405723998210     0.198193089163     1.188763586832    14.003074004430
         H            0.019750598210    -1.483033910837     1.612944986832     1.007825032230
         H           -2.505061101790    -1.534119210837     1.541748486832     1.007825032230
         H           -3.762630101790    -0.037658810837    -0.069770213168     1.007825032230
         H           -2.493373401790     1.496365189163    -1.635813613168     1.007825032230
         H            0.032054898210     1.546894889163    -1.591310613168     1.007825032230
         H            3.416422298210    -0.275542310837    -1.229464013168     1.007825032230
         H            1.810366998210    -0.459238810837    -2.024897613168     1.007825032230
         H            3.454485998210     0.110979789163     1.243815286832     1.007825032230
         H            1.891284098210     0.469395289163     2.065319986832     1.007825032230

  Basis Set: STO-3G
    Blend: STO-3G
  Basis Set: (STO-3G AUX)
    Blend: DEF2-SVP-JKFIT

  -Total Gradient:
     Atom            X                  Y                   Z
    ------   -----------------  -----------------  -----------------
       1        0.000153335463     0.002491089625     0.005248089480
       2       -0.000107227854    -0.003121503033    -0.003237650290
       3        0.000100722795     0.000082063134    -0.000087590032
       4       -0.000357524053     0.000005441343    -0.000008119600
       5        0.000154162029    -0.000196805748     0.000205722161
       6        0.000109653136     0.000089842022    -0.000095194085
       7        0.000006880590     0.005317028613    -0.003263149844
       8       -0.000024621064    -0.004491507242     0.001256067221
       9       -0.000041703705    -0.000139801318     0.000172124865
      10        0.000005008437    -0.000006076088    -0.000015428878
      11       -0.000016621672     0.000015203445    -0.000019723570
      12       -0.000028094265    -0.000008518976     0.000006844345
      13        0.000002110885    -0.000022597454     0.000022675063
      14        0.000028423735    -0.000013216486    -0.000007370613
      15       -0.000026643757    -0.000072835114    -0.000171587364
      16        0.000024260573    -0.000015904475     0.000030584836
      17        0.000003738080     0.000044137003    -0.000018424421
      18        0.000014877658     0.000052828963    -0.000002266639

*** Psi4 exiting successfully. Buy a developer a beer!
