                               Psi4 1.3.2 release

  ==> Input File <==

--------------------------------------------------------------------------
memory 50 GB
molecule {
1 1
C           0.1522651    -0.0364492     0.0338521
C          -0.5648464    -1.1499078    -0.5075734
C          -1.9847673    -1.1148589    -0.5220271
C          -2.6794379     0.0170087    -0.0064228
C          -1.9578724     1.1288170     0.5166775
C          -0.5378051     1.1178211     0.5238762
C           1.6776253    -0.0306714    -0.0063308
N           2.3960087    -0.8215833     0.8638326
N           2.3363213     0.8291832    -0.8578878
H          -0.0216122    -2.0250838    -0.9137368
H          -2.5483418    -1.9711672    -0.9408935
H          -3.7872213     0.0352733    -0.0168980
H          -2.5004267     2.0085598     0.9143208
H           0.0271594     1.9807145     0.9265154
H           3.4490422    -0.8834630     0.8527271
H           1.8769151    -1.4597921     1.5207438
H           3.3868616     0.9162275    -0.8934873
H           1.7737502     1.4226845    -1.5206468
}
set {
basis STO-3G
}
gradient('BLYP')
--------------------------------------------------------------------------

    Molecular point group: c1
  Charge       = 1
  Multiplicity = 1
  Basis Set: STO-3G
    Blend: STO-3G
  Basis Set: (STO-3G AUX)
    Blend: DEF2-SVP-JKFIT

    Orbital Energies [Eh]
    ---------------------

    Doubly Occupied:

       1A    -14.135078     2A    -14.134908     3A    -10.099928
       4A     -9.940538     5A     -9.914439     6A     -9.914200
       7A     -9.901695     8A     -9.901109     9A     -9.900279
      10A     -1.050560    11A     -0.972262    12A     -0.873582
      13A     -0.799795    14A     -0.771713    15A     -0.737357
      16A     -0.680486    17A     -0.661730    18A     -0.644909
      19A     -0.626195    20A     -0.599662    21A     -0.566962
      22A     -0.524908    23A     -0.516453    24A     -0.478786
      25A     -0.477189    26A     -0.470292    27A     -0.413420
      28A     -0.406936    29A     -0.401550    30A     -0.373448
      31A     -0.315172    32A     -0.309450

  @DF-RKS Final Energy:  -376.53604881476610

   => Energetics <=

    Nuclear Repulsion Energy =            405.4883951990259447
    One-Electron Energy =               -1302.0125921627140997
    Two-Electron Energy =                 574.2799800107275132
    DFT Exchange-Correlation Energy =     -54.2918318618054556
    Empirical Dispersion Energy =           0.0000000000000000
    VV10 Nonlocal Energy =                  0.0000000000000000
    Total Energy =                       -376.5360488147661044

  Dipole Moment: [D]
     X:     7.2836      Y:    -0.0424      Z:    -0.1453     Total:     7.2852

    Molecular point group: c1

    Geometry (in Angstrom), charge = 1, multiplicity = 1:

       Center              X                  Y                   Z               Mass
    ------------   -----------------  -----------------  -----------------  -----------------
         C            0.175405922184    -0.030764177025     0.030581837174    12.000000000000
         C           -0.541705577816    -1.144222777025    -0.510843662826    12.000000000000
         C           -1.961626477816    -1.109173877025    -0.525297362826    12.000000000000
         C           -2.656297077816     0.022693722975    -0.009693062826    12.000000000000
         C           -1.934731577816     1.134502022975     0.513407237174    12.000000000000
         C           -0.514664277816     1.123506122975     0.520605937174    12.000000000000
         C            1.700766122184    -0.024986377025    -0.009601062826    12.000000000000
         N            2.419149522184    -0.815898277025     0.860562337174    14.003074004430
         N            2.359462122184     0.834868222975    -0.861158062826    14.003074004430
         H            0.001528622184    -2.019398777025    -0.917007062826     1.007825032230
         H           -2.525200977816    -1.965482177025    -0.944163762826     1.007825032230
         H           -3.764080477816     0.040958322975    -0.020168262826     1.007825032230
         H           -2.477285877816     2.014244822975     0.911050537174     1.007825032230
         H            0.050300222184     1.986399522975     0.923245137174     1.007825032230
         H            3.472183022184    -0.877777977025     0.849456837174     1.007825032230
         H            1.900055922184    -1.454107077025     1.517473537174     1.007825032230
         H            3.410002422184     0.921912522975    -0.896757562826     1.007825032230
         H            1.796891022184     1.428369522975    -1.523917062826     1.007825032230

  Basis Set: STO-3G
    Blend: STO-3G
  Basis Set: (STO-3G AUX)
    Blend: DEF2-SVP-JKFIT

  -Total Gradient:
     Atom            X                  Y                   Z
    ------   -----------------  -----------------  -----------------
       1       -0.000005812376    -0.001169238068     0.006121355255
       2        0.000094143726     0.001572835540    -0.003502130911
       3        0.000003283720     0.000076671779     0.000051823514
       4        0.000193487502    -0.000035302742    -0.000022268904
       5       -0.000154603922     0.000305812673     0.000151548481
       6       -0.000082545857    -0.000161196635    -0.000078544077
       7        0.000023615847    -0.003605919447    -0.005434642736
       8        0.000004882653     0.003029854996     0.002757032705
       9       -0.000055969230     0.000031402834     0.000065241422
      10        0.000011332282    -0.000014249297     0.000001083855
      11        0.000028736864    -0.000008407203    -0.000005999325
      12        0.000016426272     0.000026719514     0.000012948140
      13       -0.000022305001     0.000020438246     0.000007606904
      14       -0.000032773846    -0.000011759569     0.000006112552
      15        0.000013095785     0.000015083365    -0.000069199287
      16       -0.000008798571    -0.000029161864    -0.000020477039
      17        0.000002775901    -0.000013297664    -0.000033507918
      18       -0.000006801213    -0.000016796486    -0.000006593337

*** Psi4 exiting successfully. Buy a developer a beer!
