                               Psi4 1.3.2 release

  ==> Input File <==

--------------------------------------------------------------------------
memory 50 GB
molecule {
1 1
C           0.1685427     0.0023420     0.0161869
C          -0.5567976    -1.2314427     0.1649521
C          -1.9736849    -1.2253559     0.1625326
C          -2.6845744     0.0004802    -0.0011706
C          -1.9729837     1.2261399    -0.1623903
C          -0.5560593     1.2334814    -0.1563369
C           1.6756099     0.0010953    -0.0037768
N           2.3857804    -1.1721238    -0.1898851
N           2.3912819     1.1670652     0.2025588
H          -0.0240933    -2.1885505     0.3260066
H          -2.5265592    -2.1760859     0.2924792
H          -3.7932396     0.0001737    -0.0055400
H          -2.5254706     2.1757142    -0.3019545
H          -0.0226911     2.1899462    -0.3193844
H           3.4376075    -1.1943977    -0.1919636
H           1.8845569    -2.0518649    -0.4670277
H           3.4425921     1.1916619     0.1758340
H           1.8926452     2.0529019     0.4640414
}
set {
basis STO-3G
}
gradient('BLYP')
--------------------------------------------------------------------------

    Molecular point group: c1
  Charge       = 1
  Multiplicity = 1
  Basis Set: STO-3G
    Blend: STO-3G
  Basis Set: (STO-3G AUX)
    Blend: DEF2-SVP-JKFIT

    Orbital Energies [Eh]
    ---------------------

    Doubly Occupied:

       1A    -14.120549     2A    -14.120351     3A    -10.091588
       4A     -9.954309     5A     -9.928064     6A     -9.927901
       7A     -9.916204     8A     -9.913013     9A     -9.912824
      10A     -1.041126    11A     -0.961555    12A     -0.882050
      13A     -0.806046    14A     -0.782903    15A     -0.737797
      16A     -0.677760    17A     -0.668240    18A     -0.634611
      19A     -0.632577    20A     -0.593105    21A     -0.570748
      22A     -0.538560    23A     -0.507209    24A     -0.493829
      25A     -0.487788    26A     -0.483475    27A     -0.419616
      28A     -0.417631    29A     -0.412046    30A     -0.361481
      31A     -0.325389    32A     -0.320409

  @DF-RKS Final Energy:  -376.54167739935667

   => Energetics <=

    Nuclear Repulsion Energy =            406.3174453853303021
    One-Electron Energy =               -1303.4302627050847150
    Two-Electron Energy =                 574.8637194695238577
    DFT Exchange-Correlation Energy =     -54.2925795491261027
    Empirical Dispersion Energy =           0.0000000000000000
    VV10 Nonlocal Energy =                  0.0000000000000000
    Total Energy =                       -376.5416773993566721

  Dipole Moment: [D]
     X:     6.3099      Y:     0.0149      Z:    -0.1011     Total:     6.3107

    Molecular point group: c1

    Geometry (in Angstrom), charge = 1, multiplicity = 1:

       Center              X                  Y                   Z               Mass
    ------------   -----------------  -----------------  -----------------  -----------------
         C            0.186107195155     0.002263195088     0.012968188984    12.000000000000
         C           -0.539233104845    -1.231521504912     0.161733388984    12.000000000000
         C           -1.956120404845    -1.225434704912     0.159313888984    12.000000000000
         C           -2.667009904845     0.000401395088    -0.004389311016    12.000000000000
         C           -1.955419204845     1.226061095088    -0.165609011016    12.000000000000
         C           -0.538494804845     1.233402595088    -0.159555611016    12.000000000000
         C            1.693174395155     0.001016495088    -0.006995511016    12.000000000000
         N            2.403344895155    -1.172202604912    -0.193103811016    14.003074004430
         N            2.408846395155     1.166986395088     0.199340088984    14.003074004430
         H           -0.006528804845    -2.188629304912     0.322787888984     1.007825032230
         H           -2.508994704845    -2.176164704912     0.289260488984     1.007825032230
         H           -3.775675104845     0.000094895088    -0.008758711016     1.007825032230
         H           -2.507906104845     2.175635395088    -0.305173211016     1.007825032230
         H           -0.005126604845     2.189867395088    -0.322603111016     1.007825032230
         H            3.455171995155    -1.194476504912    -0.195182311016     1.007825032230
         H            1.902121395155    -2.051943704912    -0.470246411016     1.007825032230
         H            3.460156595155     1.191583095088     0.172615288984     1.007825032230
         H            1.910209695155     2.052823095088     0.460822688984     1.007825032230

  Basis Set: STO-3G
    Blend: STO-3G
  Basis Set: (STO-3G AUX)
    Blend: DEF2-SVP-JKFIT

  -Total Gradient:
     Atom            X                  Y                   Z
    ------   -----------------  -----------------  -----------------
       1        0.000077524561     0.000146185575     0.003384348312
       2       -0.000089178548    -0.000056557418    -0.001721599280
       3       -0.000079639759    -0.000141455107     0.000021513018
       4        0.000044686202     0.000004199849    -0.000002887378
       5        0.000030895131    -0.000077160879     0.000014440538
       6        0.000048222782     0.000041666045    -0.000032181092
       7        0.000024960432     0.000341063003    -0.003493973788
       8       -0.000016378497    -0.000277753170     0.001802983696
       9       -0.000028682423     0.000069826403     0.000106135471
      10       -0.000014524190     0.000016360739     0.000006047648
      11       -0.000016527850    -0.000006271704     0.000005646332
      12        0.000002331468    -0.000016661444    -0.000000516793
      13        0.000008726449    -0.000000258967    -0.000001684463
      14        0.000009774782     0.000002760712    -0.000008147796
      15       -0.000017525020    -0.000036373283    -0.000014592045
      16        0.000008769480     0.000015522812    -0.000010272358
      17       -0.000008260586    -0.000032211528    -0.000039264928
      18        0.000005195672     0.000005593240    -0.000015639749

*** Psi4 exiting successfully. Buy a developer a beer!
