                               Psi4 1.3.2 release

  ==> Input File <==

--------------------------------------------------------------------------
memory 50 GB
molecule {
1 1
C           0.1539388    -0.0358503    -0.0325877
C          -0.5637591    -1.1299351     0.5465454
C          -1.9836586    -1.0954340     0.5603429
C          -2.6789283     0.0177260     0.0063250
C          -1.9568314     1.1107117    -0.5542379
C          -0.5367287     1.1006934    -0.5615980
C           1.6791594    -0.0287402     0.0072718
N           2.3968926    -0.8492712    -0.8356885
N           2.3389461     0.8601360     0.8277325
H          -0.0203152    -1.9904196     0.9827084
H          -2.5466673    -1.9371879     1.0084489
H          -3.7867205     0.0362368     0.0161562
H          -2.4995279     1.9762280    -0.9817470
H           0.0276002     1.9498518    -0.9933216
H           3.4499464    -0.9101040    -0.8221930
H           1.8778869    -1.5097813    -1.4702575
H           3.3895188     0.9481548     0.8595540
H           1.7772189     1.4759306     1.4705707
}
set {
basis STO-3G
}
gradient('BLYP')
--------------------------------------------------------------------------

    Molecular point group: c1
  Charge       = 1
  Multiplicity = 1
  Basis Set: STO-3G
    Blend: STO-3G
  Basis Set: (STO-3G AUX)
    Blend: DEF2-SVP-JKFIT

    Orbital Energies [Eh]
    ---------------------

    Doubly Occupied:

       1A    -14.135068     2A    -14.134918     3A    -10.099951
       4A     -9.940542     5A     -9.914407     6A     -9.914211
       7A     -9.901694     8A     -9.901093     9A     -9.900288
      10A     -1.050558    11A     -0.972241    12A     -0.873571
      13A     -0.799827    14A     -0.771663    15A     -0.737374
      16A     -0.680524    17A     -0.661693    18A     -0.644869
      19A     -0.626209    20A     -0.599686    21A     -0.566962
      22A     -0.524932    23A     -0.516447    24A     -0.478823
      25A     -0.477086    26A     -0.470302    27A     -0.413408
      28A     -0.407025    29A     -0.401452    30A     -0.373443
      31A     -0.315198    32A     -0.309417

  @DF-RKS Final Energy:  -376.53604917340328

   => Energetics <=

    Nuclear Repulsion Energy =            405.4739298888984536
    One-Electron Energy =               -1301.9839026893014307
    Two-Electron Energy =                 574.2657186027437319
    DFT Exchange-Correlation Energy =     -54.2917949757440823
    Empirical Dispersion Energy =           0.0000000000000000
    VV10 Nonlocal Energy =                  0.0000000000000000
    Total Energy =                       -376.5360491734032848

  Dipole Moment: [D]
     X:     7.2846      Y:    -0.0366      Z:     0.1457     Total:     7.2862

    Molecular point group: c1

    Geometry (in Angstrom), charge = 1, multiplicity = 1:

       Center              X                  Y                   Z               Mass
    ------------   -----------------  -----------------  -----------------  -----------------
         C            0.175771224946    -0.031401976752    -0.029480540396    12.000000000000
         C           -0.541926675054    -1.125486776752     0.549652559604    12.000000000000
         C           -1.961826175054    -1.090985676752     0.563450059604    12.000000000000
         C           -2.657095875054     0.022174323248     0.009432159604    12.000000000000
         C           -1.934998975054     1.115160023248    -0.551130740396    12.000000000000
         C           -0.514896275054     1.105141723248    -0.558490840396    12.000000000000
         C            1.700991824946    -0.024291876752     0.010378959604    12.000000000000
         N            2.418725024946    -0.844822876752    -0.832581340396    14.003074004430
         N            2.360778524946     0.864584323248     0.830839659604    14.003074004430
         H            0.001517224946    -1.985971276752     0.985815559604     1.007825032230
         H           -2.524834875054    -1.932739576752     1.011556059604     1.007825032230
         H           -3.764888075054     0.040685123248     0.019263359604     1.007825032230
         H           -2.477695475054     1.980676323248    -0.978639840396     1.007825032230
         H            0.049432624946     1.954300123248    -0.990214440396     1.007825032230
         H            3.471778824946    -0.905655676752    -0.819085840396     1.007825032230
         H            1.899719324946    -1.505332976752    -1.467150340396     1.007825032230
         H            3.411351224946     0.952603123248     0.862661159604     1.007825032230
         H            1.799051324946     1.480378923248     1.473677859604     1.007825032230

  Basis Set: STO-3G
    Blend: STO-3G
  Basis Set: (STO-3G AUX)
    Blend: DEF2-SVP-JKFIT

  -Total Gradient:
     Atom            X                  Y                   Z
    ------   -----------------  -----------------  -----------------
       1        0.000274089815    -0.001384542059    -0.006183119874
       2       -0.000130861975     0.001867546210     0.003332701382
       3        0.000007865284     0.000021932750    -0.000002502207
       4       -0.000030067713    -0.000002400259    -0.000001901325
       5       -0.000007833229    -0.000001463300     0.000007562486
       6       -0.000051229948    -0.000061362737     0.000002895400
       7       -0.000019504980    -0.003360464642     0.005695384052
       8       -0.000087263601     0.002834445261    -0.002982938887
       9        0.000066477468     0.000039631419    -0.000100163083
      10        0.000004048118     0.000008097599     0.000004759689
      11       -0.000002112382     0.000004307211    -0.000001586185
      12       -0.000001610907     0.000001046607    -0.000001144405
      13       -0.000005399631    -0.000003892463    -0.000001073157
      14        0.000003337275    -0.000004370229     0.000008735551
      15        0.000002572507     0.000094169949     0.000148839895
      16       -0.000002248975    -0.000038220060    -0.000002506910
      17       -0.000003502054     0.000018381354     0.000058740066
      18        0.000005500377    -0.000019929990     0.000015109265

*** Psi4 exiting successfully. Buy a developer a beer!
