                               Psi4 1.3.2 release

  ==> Input File <==

--------------------------------------------------------------------------
memory 50 GB
molecule {
1 1
C           0.1658520    -0.0010400     0.0033279
C          -0.5527880    -1.2266680    -0.2133557
C          -1.9702721    -1.2173108    -0.2189555
C          -2.6798499     0.0008393    -0.0007165
C          -1.9693936     1.2183673     0.2183088
C          -0.5519161     1.2259928     0.2149140
C           1.6727336    -0.0012753    -0.0009256
N           2.3769644    -1.1206755     0.4018917
N           2.3758264     1.1199139    -0.4009333
H          -0.0092477    -2.1699529    -0.4160647
H          -2.5247435    -2.1587132    -0.4000236
H          -3.7884399     0.0014482    -0.0018012
H          -2.5231310     2.1606096     0.3972715
H          -0.0077538     2.1689450     0.4174399
H           3.4281508    -1.1662022     0.3773926
H           1.8636850    -1.9381488     0.8164295
H           3.4270522     1.1667547    -0.3805447
H           1.8609826     1.9362545    -0.8157366
}
set {
basis STO-3G
}
gradient('BLYP')
--------------------------------------------------------------------------

    Molecular point group: c1
  Charge       = 1
  Multiplicity = 1
  Basis Set: STO-3G
    Blend: STO-3G
  Basis Set: (STO-3G AUX)
    Blend: DEF2-SVP-JKFIT

    Orbital Energies [Eh]
    ---------------------

    Doubly Occupied:

       1A    -14.122501     2A    -14.122418     3A    -10.092021
       4A     -9.951209     5A     -9.925057     6A     -9.924999
       7A     -9.913680     8A     -9.910929     9A     -9.910720
      10A     -1.042011    11A     -0.963189    12A     -0.880531
      13A     -0.804905    14A     -0.780811    15A     -0.736870
      16A     -0.677675    17A     -0.666791    18A     -0.635197
      19A     -0.632005    20A     -0.593850    21A     -0.570213
      22A     -0.535681    23A     -0.510566    24A     -0.488680
      25A     -0.485918    26A     -0.480064    27A     -0.417313
      28A     -0.417189    29A     -0.410098    30A     -0.363180
      31A     -0.323880    32A     -0.318638

  @DF-RKS Final Energy:  -376.54215763812635

   => Energetics <=

    Nuclear Repulsion Energy =            406.4168740000573621
    One-Electron Energy =               -1303.6931882922999648
    Two-Electron Energy =                 575.0278892153507968
    DFT Exchange-Correlation Energy =     -54.2937325612345063
    Empirical Dispersion Energy =           0.0000000000000000
    VV10 Nonlocal Energy =                  0.0000000000000000
    Total Energy =                       -376.5421576381263549

  Dipole Moment: [D]
     X:     6.4496      Y:    -0.0029      Z:    -0.0126     Total:     6.4496

    Molecular point group: c1

    Geometry (in Angstrom), charge = 1, multiplicity = 1:

       Center              X                  Y                   Z               Mass
    ------------   -----------------  -----------------  -----------------  -----------------
         C            0.185127924238    -0.000851702170     0.003006550188    12.000000000000
         C           -0.533512075762    -1.226479702170    -0.213677049812    12.000000000000
         C           -1.950996175762    -1.217122502170    -0.219276849812    12.000000000000
         C           -2.660573975762     0.001027597830    -0.001037849812    12.000000000000
         C           -1.950117675762     1.218555597830     0.217987450188    12.000000000000
         C           -0.532640175762     1.226181097830     0.214592650188    12.000000000000
         C            1.692009524238    -0.001087002170    -0.001246949812    12.000000000000
         N            2.396240324238    -1.120487202170     0.401570350188    14.003074004430
         N            2.395102324238     1.120102197830    -0.401254649812    14.003074004430
         H            0.010028224238    -2.169764602170    -0.416386049812     1.007825032230
         H           -2.505467575762    -2.158524902170    -0.400344949812     1.007825032230
         H           -3.769163975762     0.001636497830    -0.002122549812     1.007825032230
         H           -2.503855075762     2.160797897830     0.396950150188     1.007825032230
         H            0.011522124238     2.169133297830     0.417118550188     1.007825032230
         H            3.447426724238    -1.166013902170     0.377071250188     1.007825032230
         H            1.882960924238    -1.937960502170     0.816108150188     1.007825032230
         H            3.446328124238     1.166942997830    -0.380866049812     1.007825032230
         H            1.880258524238     1.936442797830    -0.816057949812     1.007825032230

  Basis Set: STO-3G
    Blend: STO-3G
  Basis Set: (STO-3G AUX)
    Blend: DEF2-SVP-JKFIT

  -Total Gradient:
     Atom            X                  Y                   Z
    ------   -----------------  -----------------  -----------------
       1        0.000041110240    -0.000076885618     0.000710109544
       2        0.000003479960     0.000050458212    -0.000367176641
       3        0.000047990331     0.000073050763     0.000013871010
       4       -0.000092465678    -0.000002337187    -0.000001147128
       5        0.000018688439    -0.000008988354    -0.000007014326
       6       -0.000028670465    -0.000039381670    -0.000001378031
       7       -0.000001292205    -0.000101271753    -0.000707148987
       8       -0.000097965452     0.000003553148     0.000245146463
       9        0.000102904024    -0.000060215387     0.000134410904
      10        0.000015386040     0.000004860784     0.000006813790
      11       -0.000001307675     0.000008928566     0.000005030760
      12       -0.000005960595     0.000004952001     0.000000379953
      13       -0.000007927760    -0.000006035092    -0.000002388735
      14        0.000004180472    -0.000009916297    -0.000006210330
      15        0.000007099958     0.000086870085     0.000021644354
      16        0.000002206493     0.000009306361     0.000064996811
      17        0.000003032858     0.000096768669    -0.000073022200
      18        0.000005476960    -0.000033096327    -0.000036679232

*** Psi4 exiting successfully. Buy a developer a beer!
