                               Psi4 1.3.2 release

  ==> Input File <==

--------------------------------------------------------------------------
memory 50 GB
molecule {
1 1
C           0.1511714    -0.0010614     0.0034014
C          -0.5563556    -1.0346896     0.6924152
C          -1.9771736    -1.0227905     0.6803185
C          -2.6799502     0.0057352    -0.0099767
C          -1.9657315     1.0309234    -0.6934389
C          -0.5448001     1.0358069    -0.6923875
C           1.6824865    -0.0055789     0.0101579
N           2.3710498    -0.6707815    -0.9791986
N           2.3687163     0.6576757     1.0024755
H          -0.0071178    -1.8326637     1.2283926
H          -2.5341291    -1.8190990     1.2113772
H          -3.7877657     0.0084266    -0.0151872
H          -2.5137964     1.8299482    -1.2296399
H           0.0133579     1.8314849    -1.2225355
H           3.4243503    -0.7119169    -1.0272899
H           1.8285392    -1.1728916    -1.7290755
H           3.4220465     0.6882520     1.0577090
H           1.8253314     1.1618375     1.7503657
}
set {
basis STO-3G
}
gradient('BLYP')
--------------------------------------------------------------------------

    Molecular point group: c1
  Charge       = 1
  Multiplicity = 1
  Basis Set: STO-3G
    Blend: STO-3G
  Basis Set: (STO-3G AUX)
    Blend: DEF2-SVP-JKFIT

    Orbital Energies [Eh]
    ---------------------

    Doubly Occupied:

       1A    -14.138340     2A    -14.138241     3A    -10.102650
       4A     -9.938255     5A     -9.911943     6A     -9.911905
       7A     -9.899056     8A     -9.898720     9A     -9.897375
      10A     -1.053035    11A     -0.974660    12A     -0.871867
      13A     -0.798734    14A     -0.769541    15A     -0.738049
      16A     -0.681479    17A     -0.662410    18A     -0.645299
      19A     -0.625309    20A     -0.601786    21A     -0.565973
      22A     -0.522821    23A     -0.517222    24A     -0.477109
      25A     -0.475361    26A     -0.468989    27A     -0.411905
      28A     -0.404716    29A     -0.399518    30A     -0.376240
      31A     -0.312768    32A     -0.307180

  @DF-RKS Final Energy:  -376.53473769117613

   => Energetics <=

    Nuclear Repulsion Energy =            405.2038319465669929
    One-Electron Energy =               -1301.4741796674184116
    Two-Electron Energy =                 574.0269828812757851
    DFT Exchange-Correlation Energy =     -54.2913728516004852
    Empirical Dispersion Energy =           0.0000000000000000
    VV10 Nonlocal Energy =                  0.0000000000000000
    Total Energy =                       -376.5347376911761330

  Dipole Moment: [D]
     X:     7.5134      Y:    -0.0281      Z:     0.0354     Total:     7.5135

    Molecular point group: c1

    Geometry (in Angstrom), charge = 1, multiplicity = 1:

       Center              X                  Y                   Z               Mass
    ------------   -----------------  -----------------  -----------------  -----------------
         C            0.172885354855    -0.000234383243     0.001451128703    12.000000000000
         C           -0.534641645145    -1.033862583243     0.690464928703    12.000000000000
         C           -1.955459645145    -1.021963483243     0.678368228703    12.000000000000
         C           -2.658236245145     0.006562216757    -0.011926971297    12.000000000000
         C           -1.944017545145     1.031750416757    -0.695389171297    12.000000000000
         C           -0.523086145145     1.036633916757    -0.694337771297    12.000000000000
         C            1.704200454855    -0.004751883243     0.008207628703    12.000000000000
         N            2.392763754855    -0.669954483243    -0.981148871297    14.003074004430
         N            2.390430254855     0.658502716757     1.000525228703    14.003074004430
         H            0.014596154855    -1.831836683243     1.226442328703     1.007825032230
         H           -2.512415145145    -1.818271983243     1.209426928703     1.007825032230
         H           -3.766051745145     0.009253616757    -0.017137471297     1.007825032230
         H           -2.492082445145     1.830775216757    -1.231590171297     1.007825032230
         H            0.035071854855     1.832311916757    -1.224485771297     1.007825032230
         H            3.446064254855    -0.711089883243    -1.029240171297     1.007825032230
         H            1.850253154855    -1.172064583243    -1.731025771297     1.007825032230
         H            3.443760454855     0.689079016757     1.055758728703     1.007825032230
         H            1.847045354855     1.162664516757     1.748415428703     1.007825032230

  Basis Set: STO-3G
    Blend: STO-3G
  Basis Set: (STO-3G AUX)
    Blend: DEF2-SVP-JKFIT

  -Total Gradient:
     Atom            X                  Y                   Z
    ------   -----------------  -----------------  -----------------
       1        0.000077387507     0.000064904030    -0.000105480921
       2       -0.000001979714    -0.000076798440    -0.000010152375
       3       -0.000004093228     0.000000012223     0.000027678547
       4        0.000073352922    -0.000005093665    -0.000011100383
       5       -0.000015551728     0.000028359017     0.000005612859
       6       -0.000027035539    -0.000008831326    -0.000056874580
       7       -0.000027217123    -0.000218078010     0.000169501823
       8       -0.000038420474     0.000133423019    -0.000095555009
       9       -0.000040887634     0.000192634086     0.000131255180
      10       -0.000007810259     0.000003785268     0.000022673008
      11        0.000004002342    -0.000005459422     0.000002977325
      12        0.000002061808    -0.000000819933    -0.000001199693
      13        0.000002204231     0.000001673996    -0.000003938130
      14       -0.000004847843     0.000014663720     0.000009142035
      15       -0.000045700483    -0.000086256644    -0.000053224092
      16        0.000024443313     0.000000967355     0.000014478430
      17       -0.000006195026    -0.000054653160    -0.000048309135
      18        0.000014261832     0.000016470060     0.000003147511

*** Psi4 exiting successfully. Buy a developer a beer!
