                               Psi4 1.3.2 release

  ==> Input File <==

--------------------------------------------------------------------------
memory 50 GB
molecule {
1 1
C           0.1521015    -0.0004180    -0.0030196
C          -0.5544645    -1.0579708    -0.6557726
C          -1.9752925    -1.0472472    -0.6439435
C          -2.6789127     0.0038662     0.0105412
C          -1.9657194     1.0528385     0.6580511
C          -0.5447953     1.0591950     0.6566316
C           1.6834145    -0.0035640    -0.0099756
N           2.3725793    -0.6335778     1.0017463
N           2.3689033     0.6256325    -1.0247544
H          -0.0044297    -1.8734060    -1.1639271
H          -2.5314946    -1.8620096    -1.1470710
H          -3.7867290     0.0056175     0.0158554
H          -2.5145763     1.8693452     1.1663837
H           0.0126089     1.8733029     1.1588577
H           3.4259177    -0.6719727     1.0512201
H           1.8305458    -1.1099147     1.7685919
H           3.4221760     0.6555692    -1.0814244
H           1.8247960     1.1030385    -1.7894835
}
set {
basis STO-3G
}
gradient('BLYP')
--------------------------------------------------------------------------

    Molecular point group: c1
  Charge       = 1
  Multiplicity = 1
  Basis Set: STO-3G
    Blend: STO-3G
  Basis Set: (STO-3G AUX)
    Blend: DEF2-SVP-JKFIT

    Orbital Energies [Eh]
    ---------------------

    Doubly Occupied:

       1A    -14.138338     2A    -14.138239     3A    -10.102650
       4A     -9.938253     5A     -9.911944     6A     -9.911905
       7A     -9.899057     8A     -9.898723     9A     -9.897373
      10A     -1.053022    11A     -0.974662    12A     -0.871867
      13A     -0.798734    14A     -0.769546    15A     -0.738048
      16A     -0.681465    17A     -0.662419    18A     -0.645303
      19A     -0.625304    20A     -0.601779    21A     -0.565972
      22A     -0.522818    23A     -0.517219    24A     -0.477107
      25A     -0.475368    26A     -0.468985    27A     -0.411905
      28A     -0.404703    29A     -0.399530    30A     -0.376239
      31A     -0.312766    32A     -0.307184

  @DF-RKS Final Energy:  -376.53473763477086

   => Energetics <=

    Nuclear Repulsion Energy =            405.2047168488358011
    One-Electron Energy =               -1301.4760140840858185
    Two-Electron Energy =                 574.0279221458015400
    DFT Exchange-Correlation Energy =     -54.2913625453224284
    Empirical Dispersion Energy =           0.0000000000000000
    VV10 Nonlocal Energy =                  0.0000000000000000
    Total Energy =                       -376.5347376347709201

  Dipole Moment: [D]
     X:     7.5131      Y:    -0.0212      Z:    -0.0357     Total:     7.5132

    Molecular point group: c1

    Geometry (in Angstrom), charge = 1, multiplicity = 1:

       Center              X                  Y                   Z               Mass
    ------------   -----------------  -----------------  -----------------  -----------------
         C            0.172887828957    -0.000076286194    -0.001423961591    12.000000000000
         C           -0.533678171043    -1.057629086194    -0.654176961591    12.000000000000
         C           -1.954506171043    -1.046905486194    -0.642347861591    12.000000000000
         C           -2.658126371043     0.004207913806     0.012136838409    12.000000000000
         C           -1.944933071043     1.053180213806     0.659646738409    12.000000000000
         C           -0.524008971043     1.059536713806     0.658227238409    12.000000000000
         C            1.704200828957    -0.003222286194    -0.008379961591    12.000000000000
         N            2.393365628957    -0.633236086194     1.003341938409    14.003074004430
         N            2.389689628957     0.625974213806    -1.023158761591    14.003074004430
         H            0.016356628957    -1.873064286194    -1.162331461591     1.007825032230
         H           -2.510708271043    -1.861667886194    -1.145475361591     1.007825032230
         H           -3.765942671043     0.005959213806     0.017451038409     1.007825032230
         H           -2.493789971043     1.869686913806     1.167979338409     1.007825032230
         H            0.033395228957     1.873644613806     1.160453338409     1.007825032230
         H            3.446704028957    -0.671630986194     1.052815738409     1.007825032230
         H            1.851332128957    -1.109572986194     1.770187538409     1.007825032230
         H            3.442962328957     0.655910913806    -1.079828761591     1.007825032230
         H            1.845582328957     1.103380213806    -1.787887861591     1.007825032230

  Basis Set: STO-3G
    Blend: STO-3G
  Basis Set: (STO-3G AUX)
    Blend: DEF2-SVP-JKFIT

  -Total Gradient:
     Atom            X                  Y                   Z
    ------   -----------------  -----------------  -----------------
       1        0.000082415195     0.000054884568     0.000130442283
       2       -0.000018135634    -0.000051646219     0.000030113039
       3       -0.000034766547    -0.000044607951    -0.000057950297
       4        0.000117825372    -0.000003672348     0.000012636321
       5       -0.000021133820     0.000035129431    -0.000005468368
       6       -0.000016628097     0.000002480762     0.000064329328
       7       -0.000043357268    -0.000199191135    -0.000181867096
       8       -0.000068313778     0.000121928816     0.000104480327
       9       -0.000003257527     0.000178233773    -0.000129427525
      10       -0.000012631114     0.000003429952    -0.000021533181
      11        0.000001842503    -0.000009428579    -0.000005756128
      12        0.000005086137    -0.000004075497    -0.000000046017
      13        0.000005266005     0.000004695321     0.000005146154
      14       -0.000004552367     0.000014737443    -0.000008200584
      15       -0.000048712425    -0.000081147613     0.000053686428
      16        0.000027061416    -0.000000944188    -0.000012001253
      17       -0.000007650959    -0.000032811479     0.000020898546
      18        0.000017660835     0.000012899272    -0.000000204002

*** Psi4 exiting successfully. Buy a developer a beer!
