                               Psi4 1.3.2 release

  ==> Input File <==

--------------------------------------------------------------------------
memory 50 GB
molecule {
1 1
C           0.1550173    -0.0259282     0.0043579
C          -0.5782062    -0.6659321    -1.0554821
C          -1.9949680    -0.6488293    -1.0465295
C          -2.6986099     0.0107515     0.0045437
C          -1.9788554     0.6555596     1.0536921
C          -0.5619387     0.6409809     1.0587590
C           1.6623062    -0.0192793    -0.0101742
N           2.3872960     0.3071422     1.1227915
N           2.3642117    -0.3043153    -1.1677345
H          -0.0525924    -1.2111409    -1.8632338
H          -2.5541305    -1.1543344    -1.8578218
H          -3.8072165     0.0235240     0.0051561
H          -2.5246794     1.1771497     1.8639057
H          -0.0223400     1.1767593     1.8634022
H           3.4390046     0.3333389     1.1292007
H           1.8984657     0.4152882     2.0454200
H           3.4156776    -0.3207032    -1.1946082
H           1.8536266    -0.4462809    -2.0737179
}
set {
basis STO-3G
}
gradient('BLYP')
--------------------------------------------------------------------------

    Molecular point group: c1
  Charge       = 1
  Multiplicity = 1
  Basis Set: STO-3G
    Blend: STO-3G
  Basis Set: (STO-3G AUX)
    Blend: DEF2-SVP-JKFIT

    Orbital Energies [Eh]
    ---------------------

    Doubly Occupied:

       1A    -14.120497     2A    -14.120259     3A    -10.091642
       4A     -9.954433     5A     -9.928084     6A     -9.928036
       7A     -9.916247     8A     -9.913035     9A     -9.912849
      10A     -1.041101    11A     -0.961453    12A     -0.882080
      13A     -0.806073    14A     -0.782925    15A     -0.737860
      16A     -0.677753    17A     -0.668262    18A     -0.634685
      19A     -0.632595    20A     -0.592866    21A     -0.570806
      22A     -0.538660    23A     -0.507190    24A     -0.493902
      25A     -0.487853    26A     -0.483558    27A     -0.419735
      28A     -0.417628    29A     -0.412043    30A     -0.361379
      31A     -0.325425    32A     -0.320422

  @DF-RKS Final Energy:  -376.54167437931903

   => Energetics <=

    Nuclear Repulsion Energy =            406.2990636948958922
    One-Electron Energy =               -1303.3924154187102431
    Two-Electron Energy =                 574.8441331560361505
    DFT Exchange-Correlation Energy =     -54.2924558115409113
    Empirical Dispersion Energy =           0.0000000000000000
    VV10 Nonlocal Energy =                  0.0000000000000000
    Total Energy =                       -376.5416743793190335

  Dipole Moment: [D]
     X:     6.3097      Y:    -0.0378      Z:    -0.0406     Total:     6.3100

    Molecular point group: c1

    Geometry (in Angstrom), charge = 1, multiplicity = 1:

       Center              X                  Y                   Z               Mass
    ------------   -----------------  -----------------  -----------------  -----------------
         C            0.185978270246    -0.020981025922     0.009332258914    12.000000000000
         C           -0.547245229754    -0.660984925922    -1.050507741086    12.000000000000
         C           -1.964007029754    -0.643882125922    -1.041555141086    12.000000000000
         C           -2.667648929754     0.015698674078     0.009518058914    12.000000000000
         C           -1.947894429754     0.660506774078     1.058666458914    12.000000000000
         C           -0.530977729754     0.645928074078     1.063733358914    12.000000000000
         C            1.693267170246    -0.014332125922    -0.005199841086    12.000000000000
         N            2.418256970246     0.312089374078     1.127765858914    14.003074004430
         N            2.395172670246    -0.299368125922    -1.162760141086    14.003074004430
         H           -0.021631429754    -1.206193725922    -1.858259441086     1.007825032230
         H           -2.523169529754    -1.149387225922    -1.852847441086     1.007825032230
         H           -3.776255529754     0.028471174078     0.010130458914     1.007825032230
         H           -2.493718429754     1.182096874078     1.868880058914     1.007825032230
         H            0.008620970246     1.181706474078     1.868376558914     1.007825032230
         H            3.469965570246     0.338286074078     1.134175058914     1.007825032230
         H            1.929426670246     0.420235374078     2.050394358914     1.007825032230
         H            3.446638570246    -0.315756025922    -1.189633841086     1.007825032230
         H            1.884587570246    -0.441333725922    -2.068743541086     1.007825032230

  Basis Set: STO-3G
    Blend: STO-3G
  Basis Set: (STO-3G AUX)
    Blend: DEF2-SVP-JKFIT

  -Total Gradient:
     Atom            X                  Y                   Z
    ------   -----------------  -----------------  -----------------
       1       -0.000022516755    -0.001305839165     0.000763290946
       2        0.000035180549     0.001297561478    -0.000925048715
       3        0.000134341886     0.000084261504     0.000191178916
       4       -0.000197895114     0.000007723419    -0.000024197569
       5        0.000002460152     0.000001043816     0.000048693894
       6       -0.000035443654    -0.000023808193    -0.000122500588
       7       -0.000318665546    -0.001742365307     0.000551537756
       8        0.000542227244     0.001567487443    -0.000929694024
       9       -0.000146607630     0.000082374898    -0.000037153354
      10        0.000022907249     0.000017954965    -0.000025288539
      11        0.000004711568     0.000004989431     0.000022012691
      12       -0.000014559152     0.000017107430     0.000012503809
      13       -0.000015897793    -0.000007943528    -0.000003480872
      14       -0.000026492631    -0.000030274252     0.000006448727
      15        0.000021821414     0.000071322983     0.000392795237
      16        0.000024945016    -0.000002119078    -0.000069119936
      17        0.000007706211     0.000009128696     0.000156826771
      18       -0.000026195221    -0.000047172989    -0.000007770823

*** Psi4 exiting successfully. Buy a developer a beer!
