                               Psi4 1.3.2 release

  ==> Input File <==

--------------------------------------------------------------------------
memory 50 GB
molecule {
1 1
C           0.1682324     0.0008695    -0.0157525
C          -0.5566223    -1.2376950    -0.1206308
C          -1.9734899    -1.2296633    -0.1185989
C          -2.6842519     0.0013421     0.0011789
C          -1.9725767     1.2318717     0.1188927
C          -0.5556699     1.2378152     0.1127745
C           1.6752605     0.0004089     0.0044300
N           2.3868258    -1.1645866     0.2321130
N           2.3901223     1.1588780    -0.2428093
H          -0.0244257    -2.2002499    -0.2473762
H          -2.5269745    -2.1840387    -0.2147173
H          -3.7929187     0.0013766     0.0052743
H          -2.5246350     2.1860698     0.2245051
H          -0.0216194     2.1990783     0.2419072
H           3.4386841    -1.1857699     0.2333149
H           1.8866566    -2.0351334     0.5386305
H           3.4414030     1.1862896    -0.2175011
H           1.8902463     2.0344130    -0.5348539
}
set {
basis STO-3G
}
gradient('BLYP')
--------------------------------------------------------------------------

    Molecular point group: c1
  Charge       = 1
  Multiplicity = 1
  Basis Set: STO-3G
    Blend: STO-3G
  Basis Set: (STO-3G AUX)
    Blend: DEF2-SVP-JKFIT

    Orbital Energies [Eh]
    ---------------------

    Doubly Occupied:

       1A    -14.120460     2A    -14.120329     3A    -10.091551
       4A     -9.954344     5A     -9.928101     6A     -9.927957
       7A     -9.916225     8A     -9.913038     9A     -9.912850
      10A     -1.041098    11A     -0.961498    12A     -0.882082
      13A     -0.806052    14A     -0.782962    15A     -0.737788
      16A     -0.677734    17A     -0.668265    18A     -0.634624
      19A     -0.632586    20A     -0.592998    21A     -0.570776
      22A     -0.538594    23A     -0.507226    24A     -0.493870
      25A     -0.487770    26A     -0.483542    27A     -0.419632
      28A     -0.417647    29A     -0.412102    30A     -0.361424
      31A     -0.325395    32A     -0.320455

  @DF-RKS Final Energy:  -376.54167713281140

   => Energetics <=

    Nuclear Repulsion Energy =            406.3295898437487494
    One-Electron Energy =               -1303.4540937560582279
    Two-Electron Energy =                 574.8754466189253662
    DFT Exchange-Correlation Energy =     -54.2926198394272461
    Empirical Dispersion Energy =           0.0000000000000000
    VV10 Nonlocal Energy =                  0.0000000000000000
    Total Energy =                       -376.5416771328113441

  Dipole Moment: [D]
     X:     6.3078      Y:     0.0176      Z:     0.0963     Total:     6.3086

    Molecular point group: c1

    Geometry (in Angstrom), charge = 1, multiplicity = 1:

       Center              X                  Y                   Z               Mass
    ------------   -----------------  -----------------  -----------------  -----------------
         C            0.185718993939     0.001022274568    -0.013003475894    12.000000000000
         C           -0.539135706061    -1.237542225432    -0.117881775894    12.000000000000
         C           -1.956003306061    -1.229510525432    -0.115849875894    12.000000000000
         C           -2.666765306061     0.001494874568     0.003927924106    12.000000000000
         C           -1.955090106061     1.232024474568     0.121641724106    12.000000000000
         C           -0.538183306061     1.237967974568     0.115523524106    12.000000000000
         C            1.692747093939     0.000561674568     0.007179024106    12.000000000000
         N            2.404312393939    -1.164433825432     0.234862024106    14.003074004430
         N            2.407608893939     1.159030774568    -0.240060275894    14.003074004430
         H           -0.006939106061    -2.200097125432    -0.244627175894     1.007825032230
         H           -2.509487906061    -2.183885925432    -0.211968275894     1.007825032230
         H           -3.775432106061     0.001529374568     0.008023324106     1.007825032230
         H           -2.507148406061     2.186222574568     0.227254124106     1.007825032230
         H           -0.004132806061     2.199231074568     0.244656224106     1.007825032230
         H            3.456170693939    -1.185617125432     0.236063924106     1.007825032230
         H            1.904143193939    -2.034980625432     0.541379524106     1.007825032230
         H            3.458889593939     1.186442374568    -0.214752075894     1.007825032230
         H            1.907732893939     2.034565774568    -0.532104875894     1.007825032230

  Basis Set: STO-3G
    Blend: STO-3G
  Basis Set: (STO-3G AUX)
    Blend: DEF2-SVP-JKFIT

  -Total Gradient:
     Atom            X                  Y                   Z
    ------   -----------------  -----------------  -----------------
       1       -0.000184129742     0.000134383854    -0.003411275256
       2        0.000132721755    -0.000403811373     0.001686943573
       3        0.000079115109     0.000165919291     0.000017097978
       4        0.000001806400    -0.000013498060    -0.000001531885
       5       -0.000021701265     0.000033672904     0.000006134623
       6        0.000064785161     0.000040417423     0.000015618008
       7       -0.000219614555     0.000366286557     0.003465828009
       8        0.000107896113    -0.000281939772    -0.001753077144
       9        0.000005066135    -0.000121468773    -0.000039442168
      10       -0.000005555343    -0.000024667881    -0.000017159191
      11        0.000022784621     0.000003036052    -0.000005639438
      12       -0.000000814251     0.000013777211     0.000002031322
      13        0.000003416048     0.000005038711     0.000002296320
      14        0.000017733641     0.000014142821     0.000005596109
      15        0.000008140859    -0.000028491396    -0.000004333052
      16       -0.000001269207     0.000013479981     0.000002174208
      17        0.000000717115     0.000073161971     0.000006654591
      18       -0.000020419333     0.000009062489     0.000021900284

*** Psi4 exiting successfully. Buy a developer a beer!
