                               Psi4 1.3.2 release

  ==> Input File <==

--------------------------------------------------------------------------
memory 50 GB
molecule {
1 1
C           0.1627258    -0.0138714    -0.0251669
C          -0.5545356    -1.2030431     0.3382538
C          -1.9726692    -1.1829401     0.3525495
C          -2.6762878     0.0076817     0.0044125
C          -1.9624000     1.1909733    -0.3489221
C          -0.5442739     1.1922471    -0.3505887
C           1.6725837    -0.0128274     0.0060039
N           2.3801010    -1.0720616    -0.5277055
N           2.3578484     1.0739271     0.5129244
H          -0.0081206    -2.1203569     0.6323781
H          -2.5313547    -2.0941932     0.6422446
H          -3.7846829     0.0148140     0.0120580
H          -2.5129425     2.1120187    -0.6229500
H           0.0102044     2.1053732    -0.6424907
H           3.4295630    -1.1423581    -0.4752657
H           1.8586780    -1.8669711    -0.9763920
H           3.4085067     1.1434551     0.4976203
H           1.8232528     1.8497451     0.9790909
}
set {
basis STO-3G
}
gradient('BLYP')
--------------------------------------------------------------------------

    Molecular point group: c1
  Charge       = 1
  Multiplicity = 1
  Basis Set: STO-3G
    Blend: STO-3G
  Basis Set: (STO-3G AUX)
    Blend: DEF2-SVP-JKFIT

    Orbital Energies [Eh]
    ---------------------

    Doubly Occupied:

       1A    -14.125525     2A    -14.125364     3A    -10.093381
       4A     -9.948087     5A     -9.922207     6A     -9.921851
       7A     -9.910507     8A     -9.908414     9A     -9.908139
      10A     -1.043730    11A     -0.965414    12A     -0.878762
      13A     -0.803489    14A     -0.778468    15A     -0.736441
      16A     -0.678146    17A     -0.664850    18A     -0.638670
      19A     -0.629838    20A     -0.594865    21A     -0.569583
      22A     -0.532466    23A     -0.513249    24A     -0.484669
      25A     -0.483905    26A     -0.476505    27A     -0.416769
      28A     -0.414337    29A     -0.407929    30A     -0.365481
      31A     -0.321874    32A     -0.316382

  @DF-RKS Final Energy:  -376.54114356433854

   => Energetics <=

    Nuclear Repulsion Energy =            406.2972362501342332
    One-Electron Energy =               -1303.5108067425453555
    Two-Electron Energy =                 574.9661212983461382
    DFT Exchange-Correlation Energy =     -54.2936943702736059
    Empirical Dispersion Energy =           0.0000000000000000
    VV10 Nonlocal Energy =                  0.0000000000000000
    Total Energy =                       -376.5411435643385971

  Dipole Moment: [D]
     X:     6.6377      Y:    -0.0410      Z:     0.1340     Total:     6.6392

    Molecular point group: c1

    Geometry (in Angstrom), charge = 1, multiplicity = 1:

       Center              X                  Y                   Z               Mass
    ------------   -----------------  -----------------  -----------------  -----------------
         C            0.182928511895    -0.011941238683    -0.021517795330    12.000000000000
         C           -0.534332888105    -1.201112938683     0.341902904670    12.000000000000
         C           -1.952466488105    -1.181009938683     0.356198604670    12.000000000000
         C           -2.656085088105     0.009611861317     0.008061604670    12.000000000000
         C           -1.942197288105     1.192903461317    -0.345272995330    12.000000000000
         C           -0.524071188105     1.194177261317    -0.346939595330    12.000000000000
         C            1.692786411895    -0.010897238683     0.009653004670    12.000000000000
         N            2.400303711895    -1.070131438683    -0.524056395330    14.003074004430
         N            2.378051111895     1.075857261317     0.516573504670    14.003074004430
         H            0.012082111895    -2.118426738683     0.636027204670     1.007825032230
         H           -2.511151988105    -2.092263038683     0.645893704670     1.007825032230
         H           -3.764480188105     0.016744161317     0.015707104670     1.007825032230
         H           -2.492739788105     2.113948861317    -0.619300895330     1.007825032230
         H            0.030407111895     2.107303361317    -0.638841595330     1.007825032230
         H            3.449765711895    -1.140427938683    -0.471616595330     1.007825032230
         H            1.878880711895    -1.865040938683    -0.972742895330     1.007825032230
         H            3.428709411895     1.145385261317     0.501269404670     1.007825032230
         H            1.843455511895     1.851675261317     0.982740004670     1.007825032230

  Basis Set: STO-3G
    Blend: STO-3G
  Basis Set: (STO-3G AUX)
    Blend: DEF2-SVP-JKFIT

  -Total Gradient:
     Atom            X                  Y                   Z
    ------   -----------------  -----------------  -----------------
       1       -0.000175241468    -0.000549083760    -0.005161578097
       2        0.000157249797     0.000451802532     0.002793020990
       3        0.000072292738     0.000242401553    -0.000053951776
       4        0.000072893886    -0.000050776844    -0.000001655860
       5       -0.000077114785     0.000181119912    -0.000032248764
       6       -0.000020706935    -0.000078760881    -0.000047723407
       7        0.000041881137    -0.001701164636     0.005144771691
       8       -0.000015341689     0.001304833880    -0.002744285007
       9       -0.000036586994     0.000113364152     0.000027709691
      10        0.000001391670    -0.000011894797     0.000021005399
      11        0.000036581690     0.000003145300    -0.000001546352
      12        0.000004657833     0.000027485317    -0.000007475821
      13       -0.000001595447     0.000015665815    -0.000007597099
      14       -0.000025962647     0.000020799475     0.000010576224
      15       -0.000016196198     0.000054146843     0.000022963285
      16        0.000008868207     0.000011350515     0.000027973045
      17        0.000000468630    -0.000022981155     0.000000040069
      18        0.000003447744    -0.000003829919     0.000007794357

*** Psi4 exiting successfully. Buy a developer a beer!
