                               Psi4 1.3.2 release

  ==> Input File <==

--------------------------------------------------------------------------
memory 50 GB
molecule {
1 1
C           0.1466118     0.0466949     0.0371942
C          -0.5591543    -0.9127678     0.8309734
C          -1.9789004    -0.9313241     0.7925287
C          -2.6865612    -0.0068499    -0.0284521
C          -1.9762391     0.9353140    -0.8271812
C          -0.5562772     0.9572333    -0.8138830
C           1.6719398     0.0162186     0.0158480
N           2.3342564    -0.4801375    -1.0860836
N           2.3852639     0.4050690     1.1286164
H          -0.0062926    -1.6342502     1.4632350
H          -2.5320788    -1.6723027     1.4019079
H          -3.7942179    -0.0240005    -0.0497918
H          -2.5283332     1.6511821    -1.4667517
H          -0.0015471     1.6862972    -1.4357506
H           3.3856779    -0.4966827    -1.1697825
H           1.7735129    -0.7896083    -1.9215614
H           3.4365102     0.3459912     1.1907601
H           1.8669094     0.7871019     1.9613257
}
set {
basis STO-3G
}
gradient('BLYP')
--------------------------------------------------------------------------

    Molecular point group: c1
  Charge       = 1
  Multiplicity = 1
  Basis Set: STO-3G
    Blend: STO-3G
  Basis Set: (STO-3G AUX)
    Blend: DEF2-SVP-JKFIT

    Orbital Energies [Eh]
    ---------------------

    Doubly Occupied:

       1A    -14.134972     2A    -14.134872     3A    -10.099955
       4A     -9.940621     5A     -9.914666     6A     -9.914053
       7A     -9.901753     8A     -9.901138     9A     -9.900347
      10A     -1.050522    11A     -0.972173    12A     -0.873608
      13A     -0.799866    14A     -0.771675    15A     -0.737392
      16A     -0.680513    17A     -0.661711    18A     -0.644861
      19A     -0.626247    20A     -0.599592    21A     -0.566998
      22A     -0.524998    23A     -0.516439    24A     -0.478898
      25A     -0.477055    26A     -0.470353    27A     -0.413457
      28A     -0.407115    29A     -0.401430    30A     -0.373381
      31A     -0.315265    32A     -0.309445

  @DF-RKS Final Energy:  -376.53606289528057

   => Energetics <=

    Nuclear Repulsion Energy =            405.4800010663720400
    One-Electron Energy =               -1301.9951335633827512
    Two-Electron Energy =                 574.2708142678030754
    DFT Exchange-Correlation Energy =     -54.2917446660729581
    Empirical Dispersion Energy =           0.0000000000000000
    VV10 Nonlocal Energy =                  0.0000000000000000
    Total Energy =                       -376.5360628952805655

  Dipole Moment: [D]
     X:     7.2821      Y:    -0.0717      Z:    -0.0323     Total:     7.2825

    Molecular point group: c1

    Geometry (in Angstrom), charge = 1, multiplicity = 1:

       Center              X                  Y                   Z               Mass
    ------------   -----------------  -----------------  -----------------  -----------------
         C            0.176035437648     0.046235507613     0.031798358554    12.000000000000
         C           -0.529730662352    -0.913227192387     0.825577558554    12.000000000000
         C           -1.949476762352    -0.931783492387     0.787132858554    12.000000000000
         C           -2.657137562352    -0.007309292387    -0.033847941446    12.000000000000
         C           -1.946815462352     0.934854607613    -0.832577041446    12.000000000000
         C           -0.526853562352     0.956773907613    -0.819278841446    12.000000000000
         C            1.701363437648     0.015759207613     0.010452158554    12.000000000000
         N            2.363680037648    -0.480596892387    -1.091479441446    14.003074004430
         N            2.414687537648     0.404609607613     1.123220558554    14.003074004430
         H            0.023131037648    -1.634709592387     1.457839158554     1.007825032230
         H           -2.502655162352    -1.672762092387     1.396512058554     1.007825032230
         H           -3.764794262352    -0.024459892387    -0.055187641446     1.007825032230
         H           -2.498909562352     1.650722707613    -1.472147541446     1.007825032230
         H            0.027876537648     1.685837807613    -1.441146441446     1.007825032230
         H            3.415101537648    -0.497142092387    -1.175178341446     1.007825032230
         H            1.802936537648    -0.790067692387    -1.926957241446     1.007825032230
         H            3.465933837648     0.345531807613     1.185364258554     1.007825032230
         H            1.896333037648     0.786642507613     1.955929858554     1.007825032230

  Basis Set: STO-3G
    Blend: STO-3G
  Basis Set: (STO-3G AUX)
    Blend: DEF2-SVP-JKFIT

  -Total Gradient:
     Atom            X                  Y                   Z
    ------   -----------------  -----------------  -----------------
       1        0.000276765110     0.002015991398     0.005259974382
       2       -0.000170756234    -0.002366587498    -0.003166925717
       3       -0.000015304206     0.000042431092    -0.000041045521
       4       -0.000190554931    -0.000020669344     0.000009050782
       5        0.000091231369    -0.000094216740     0.000094716654
       6       -0.000085413288    -0.000065530851    -0.000021835955
       7        0.000058943326     0.004028623781    -0.003776066872
       8        0.000101705767    -0.003599866071     0.001681597469
       9       -0.000043770109     0.000171112071    -0.000002221433
      10        0.000007789734     0.000039878364     0.000012283072
      11       -0.000018029084     0.000006711443    -0.000014022450
      12       -0.000012555848    -0.000007739764     0.000006558787
      13       -0.000014778241    -0.000021251325     0.000011473100
      14        0.000031500417    -0.000004028985     0.000032623002
      15        0.000008880175    -0.000047585182    -0.000058911004
      16       -0.000004988535     0.000012843929     0.000002909170
      17        0.000012876854    -0.000087608155    -0.000083454504
      18       -0.000012120096    -0.000005925722     0.000032151419

*** Psi4 exiting successfully. Buy a developer a beer!
