                               Psi4 1.3.2 release

  ==> Input File <==

--------------------------------------------------------------------------
memory 50 GB
molecule {
1 1
C           0.1623409    -0.0133830     0.0279401
C          -0.5542714    -1.2138039    -0.2970900
C          -1.9723737    -1.1954083    -0.3131991
C          -2.6756411     0.0065600    -0.0055404
C          -1.9624911     1.2013366     0.3085886
C          -0.5443441     1.2034912     0.3112945
C           1.6719676    -0.0136182    -0.0040696
N           2.3849297    -1.0526576     0.5611273
N           2.3544483     1.0571305    -0.5468025
H          -0.0069352    -2.1400676    -0.5599471
H          -2.5306669    -2.1159183    -0.5728684
H          -3.7840177     0.0134474    -0.0144025
H          -2.5137069     2.1308044     0.5509887
H           0.0099280     2.1259652     0.5725762
H           3.4352331    -1.1162355     0.5167156
H           1.8683409    -1.8283475     1.0475379
H           3.4052882     1.1255522    -0.5398271
H           1.8185486     1.8123378    -1.0444050
}
set {
basis STO-3G
}
gradient('BLYP')
--------------------------------------------------------------------------

    Molecular point group: c1
  Charge       = 1
  Multiplicity = 1
  Basis Set: STO-3G
    Blend: STO-3G
  Basis Set: (STO-3G AUX)
    Blend: DEF2-SVP-JKFIT

    Orbital Energies [Eh]
    ---------------------

    Doubly Occupied:

       1A    -14.125513     2A    -14.125271     3A    -10.093371
       4A     -9.948085     5A     -9.922144     6A     -9.921859
       7A     -9.910468     8A     -9.908398     9A     -9.908121
      10A     -1.043856    11A     -0.965306    12A     -0.878786
      13A     -0.803505    14A     -0.778469    15A     -0.736390
      16A     -0.678158    17A     -0.664862    18A     -0.638605
      19A     -0.629851    20A     -0.594725    21A     -0.569621
      22A     -0.532451    23A     -0.513177    24A     -0.484743
      25A     -0.483887    26A     -0.476505    27A     -0.416747
      28A     -0.414231    29A     -0.407987    30A     -0.365465
      31A     -0.321841    32A     -0.316376

  @DF-RKS Final Energy:  -376.54113745243660

   => Energetics <=

    Nuclear Repulsion Energy =            406.3095326434060439
    One-Electron Energy =               -1303.5362703696637254
    Two-Electron Energy =                 574.9795516161998421
    DFT Exchange-Correlation Energy =     -54.2939513423788398
    Empirical Dispersion Energy =           0.0000000000000000
    VV10 Nonlocal Energy =                  0.0000000000000000
    Total Energy =                       -376.5411374524366011

  Dipole Moment: [D]
     X:     6.6425      Y:    -0.0377      Z:    -0.1241     Total:     6.6437

    Molecular point group: c1

    Geometry (in Angstrom), charge = 1, multiplicity = 1:

       Center              X                  Y                   Z               Mass
    ------------   -----------------  -----------------  -----------------  -----------------
         C            0.182299868656    -0.011502572117     0.023878973214    12.000000000000
         C           -0.534312431344    -1.211923472117    -0.301151126786    12.000000000000
         C           -1.952414731344    -1.193527872117    -0.317260226786    12.000000000000
         C           -2.655682131344     0.008440427883    -0.009601526786    12.000000000000
         C           -1.942532131344     1.203217027883     0.304527473214    12.000000000000
         C           -0.524385131344     1.205371627883     0.307233373214    12.000000000000
         C            1.691926568656    -0.011737772117    -0.008130726786    12.000000000000
         N            2.404888668656    -1.050777172117     0.557066173214    14.003074004430
         N            2.374407268656     1.059010927883    -0.550863626786    14.003074004430
         H            0.013023768656    -2.138187172117    -0.564008226786     1.007825032230
         H           -2.510707931344    -2.114037872117    -0.576929526786     1.007825032230
         H           -3.764058731344     0.015327827883    -0.018463626786     1.007825032230
         H           -2.493747931344     2.132684827883     0.546927573214     1.007825032230
         H            0.029886968656     2.127845627883     0.568515073214     1.007825032230
         H            3.455192068656    -1.114355072117     0.512654473214     1.007825032230
         H            1.888299868656    -1.826467072117     1.043476773214     1.007825032230
         H            3.425247168656     1.127432627883    -0.543888226786     1.007825032230
         H            1.838507568656     1.814218227883    -1.048466126786     1.007825032230

  Basis Set: STO-3G
    Blend: STO-3G
  Basis Set: (STO-3G AUX)
    Blend: DEF2-SVP-JKFIT

  -Total Gradient:
     Atom            X                  Y                   Z
    ------   -----------------  -----------------  -----------------
       1       -0.000322270260    -0.000084113638     0.005221681411
       2        0.000157350555     0.000710363866    -0.002866570425
       3       -0.000049396484    -0.000086031888     0.000017163216
       4        0.000307278556     0.000022572797     0.000004692941
       5       -0.000137101214     0.000158978391     0.000067655843
       6        0.000097423386     0.000090438006    -0.000046891142
       7       -0.000381970812    -0.002133891438    -0.005048819211
       8        0.000559460633     0.001621918663     0.002265550285
       9       -0.000247200861    -0.000260878327     0.000357270646
      10       -0.000007783981    -0.000038054356    -0.000055470928
      11        0.000033802722    -0.000027561135     0.000000570816
      12        0.000026984259     0.000005507519    -0.000013615089
      13        0.000012934722     0.000019708100     0.000019352482
      14       -0.000020483982     0.000033618388    -0.000026140095
      15        0.000088236074     0.000031232504     0.000095260388
      16       -0.000044602276     0.000077610800     0.000077454419
      17        0.000017828154    -0.000117604456    -0.000002003688
      18       -0.000061278946    -0.000013373321    -0.000067504272

*** Psi4 exiting successfully. Buy a developer a beer!
