                               Psi4 1.3.2 release

  ==> Input File <==

--------------------------------------------------------------------------
memory 50 GB
molecule {
1 1
C           0.1541917     0.0383964    -0.0314905
C          -0.5624117    -0.7866697    -0.9624153
C          -1.9801702    -0.8074947    -0.9280200
C          -2.6841636    -0.0092552     0.0212472
C          -1.9720679     0.8059043     0.9503088
C          -0.5541510     0.8233163     0.9394354
C           1.6639234     0.0174198    -0.0238296
N           2.3540969    -0.0545982     1.1703192
N           2.3664712     0.0057695    -1.2128442
H          -0.0145673    -1.4251069    -1.6826045
H          -2.5372823    -1.4513127    -1.6362881
H          -3.7923355    -0.0251410     0.0395661
H          -2.5238827     1.4272584     1.6823645
H          -0.0014250     1.4705406     1.6481140
H           3.4049695    -0.0118136     1.2249207
H           1.8187872    -0.1103128     2.0733445
H           3.4149214    -0.0819210    -1.2564995
H           1.8481423     0.1221912    -2.1198938
}
set {
basis STO-3G
}
gradient('BLYP')
--------------------------------------------------------------------------

    Molecular point group: c1
  Charge       = 1
  Multiplicity = 1
  Basis Set: STO-3G
    Blend: STO-3G
  Basis Set: (STO-3G AUX)
    Blend: DEF2-SVP-JKFIT

    Orbital Energies [Eh]
    ---------------------

    Doubly Occupied:

       1A    -14.125458     2A    -14.125164     3A    -10.093383
       4A     -9.948253     5A     -9.922395     6A     -9.921942
       7A     -9.910621     8A     -9.908542     9A     -9.908277
      10A     -1.043713    11A     -0.965276    12A     -0.878861
      13A     -0.803582    14A     -0.778583    15A     -0.736455
      16A     -0.678150    17A     -0.664885    18A     -0.638654
      19A     -0.629945    20A     -0.594664    21A     -0.569679
      22A     -0.532619    23A     -0.513283    24A     -0.484743
      25A     -0.484062    26A     -0.476596    27A     -0.416877
      28A     -0.414359    29A     -0.408084    30A     -0.365332
      31A     -0.321980    32A     -0.316496

  @DF-RKS Final Energy:  -376.54115592625760

   => Energetics <=

    Nuclear Repulsion Energy =            406.3095379934506468
    One-Electron Energy =               -1303.5321867942157041
    Two-Electron Energy =                 574.9752176317985004
    DFT Exchange-Correlation Energy =     -54.2937247572910593
    Empirical Dispersion Energy =           0.0000000000000000
    VV10 Nonlocal Energy =                  0.0000000000000000
    Total Energy =                       -376.5411559262575452

  Dipole Moment: [D]
     X:     6.6307      Y:    -0.0141      Z:    -0.0073     Total:     6.6308

    Molecular point group: c1

    Geometry (in Angstrom), charge = 1, multiplicity = 1:

       Center              X                  Y                   Z               Mass
    ------------   -----------------  -----------------  -----------------  -----------------
         C            0.182981281809     0.036667190686    -0.022902249750    12.000000000000
         C           -0.533622118191    -0.788398909314    -0.953827049750    12.000000000000
         C           -1.951380618191    -0.809223909314    -0.919431749750    12.000000000000
         C           -2.655374018191    -0.010984409314     0.029835450250    12.000000000000
         C           -1.943278318191     0.804175090686     0.958897050250    12.000000000000
         C           -0.525361418191     0.821587090686     0.948023650250    12.000000000000
         C            1.692712981809     0.015690590686    -0.015241349750    12.000000000000
         N            2.382886481809    -0.056327409314     1.178907450250    14.003074004430
         N            2.395260781809     0.004040290686    -1.204255949750    14.003074004430
         H            0.014222281809    -1.426836109314    -1.674016249750     1.007825032230
         H           -2.508492718191    -1.453041909314    -1.627699849750     1.007825032230
         H           -3.763545918191    -0.026870209314     0.048154350250     1.007825032230
         H           -2.495093118191     1.425529190686     1.690952750250     1.007825032230
         H            0.027364581809     1.468811390686     1.656702250250     1.007825032230
         H            3.433759081809    -0.013542809314     1.233508950250     1.007825032230
         H            1.847576781809    -0.112042009314     2.081932750250     1.007825032230
         H            3.443710981809    -0.083650209314    -1.247911249750     1.007825032230
         H            1.876931881809     0.120461990686    -2.111305549750     1.007825032230

  Basis Set: STO-3G
    Blend: STO-3G
  Basis Set: (STO-3G AUX)
    Blend: DEF2-SVP-JKFIT

  -Total Gradient:
     Atom            X                  Y                   Z
    ------   -----------------  -----------------  -----------------
       1        0.000086643454     0.001749405039    -0.002964331065
       2       -0.000118378644    -0.002015386142     0.001991208819
       3       -0.000188497345    -0.000201073859    -0.000213000462
       4        0.000426332317     0.000001204157    -0.000007986408
       5       -0.000138872774     0.000153542390     0.000183636618
       6       -0.000060442387    -0.000071061949    -0.000041805924
       7       -0.000107868175     0.003324983147     0.001139799262
       8        0.000051279223    -0.003082068501    -0.000135180539
       9        0.000085117815     0.000144562628     0.000232706846
      10       -0.000020015487     0.000005826620    -0.000002576412
      11        0.000003991308    -0.000021585670    -0.000026782616
      12        0.000033590106    -0.000001702514    -0.000005890083
      13        0.000009575921     0.000018811133     0.000026686914
      14       -0.000026851781     0.000024860456    -0.000007292688
      15        0.000022132187     0.000047508406    -0.000098927527
      16       -0.000014083127     0.000033126827     0.000006800615
      17       -0.000005750532    -0.000053660963    -0.000067372434
      18       -0.000011146642    -0.000060616448     0.000013796427

*** Psi4 exiting successfully. Buy a developer a beer!
