                               Psi4 1.3.2 release

  ==> Input File <==

--------------------------------------------------------------------------
memory 50 GB
molecule {
1 1
C           0.1600580    -0.0128680     0.0268792
C          -0.5576122    -1.2138830    -0.2942703
C          -1.9757235    -1.1960508    -0.3094875
C          -2.6796117     0.0060878    -0.0040413
C          -1.9658688     1.2012851     0.3070247
C          -0.5477238     1.2037411     0.3087776
C           1.6696722    -0.0126753    -0.0053586
N           2.3788140    -1.0521067     0.5642134
N           2.3545655     1.0547989    -0.5518316
H          -0.0107473    -2.1408546    -0.5555147
H          -2.5337483    -2.1174272    -0.5666527
H          -3.7880092     0.0127057    -0.0119603
H          -2.5168786     2.1312521     0.5479611
H           0.0059837     2.1269965     0.5685291
H           3.4279399    -1.1256066     0.5088419
H           1.8583864    -1.8337074     1.0368869
H           3.4048692     1.1285112    -0.5333299
H           1.8190909     1.8182216    -1.0370354
}
set {
basis STO-3G
}
gradient('BLYP')
--------------------------------------------------------------------------

    Molecular point group: c1
  Charge       = 1
  Multiplicity = 1
  Basis Set: STO-3G
    Blend: STO-3G
  Basis Set: (STO-3G AUX)
    Blend: DEF2-SVP-JKFIT

    Orbital Energies [Eh]
    ---------------------

    Doubly Occupied:

       1A    -14.125436     2A    -14.125330     3A    -10.093396
       4A     -9.948178     5A     -9.922265     6A     -9.921949
       7A     -9.910588     8A     -9.908478     9A     -9.908213
      10A     -1.043727    11A     -0.965337    12A     -0.878821
      13A     -0.803556    14A     -0.778508    15A     -0.736471
      16A     -0.678176    17A     -0.664833    18A     -0.638709
      19A     -0.629897    20A     -0.594733    21A     -0.569652
      22A     -0.532559    23A     -0.513326    24A     -0.484624
      25A     -0.484028    26A     -0.476543    27A     -0.416844
      28A     -0.414412    29A     -0.407957    30A     -0.365387
      31A     -0.321960    32A     -0.316428

  @DF-RKS Final Energy:  -376.54114290613836

   => Energetics <=

    Nuclear Repulsion Energy =            406.2882951430319736
    One-Electron Energy =               -1303.4908694284340527
    Two-Electron Energy =                 574.9551395694425082
    DFT Exchange-Correlation Energy =     -54.2937081901788403
    Empirical Dispersion Energy =           0.0000000000000000
    VV10 Nonlocal Energy =                  0.0000000000000000
    Total Energy =                       -376.5411429061384183

  Dipole Moment: [D]
     X:     6.6322      Y:    -0.0381      Z:    -0.1277     Total:     6.6335

    Molecular point group: c1

    Geometry (in Angstrom), charge = 1, multiplicity = 1:

       Center              X                  Y                   Z               Mass
    ------------   -----------------  -----------------  -----------------  -----------------
         C            0.183183233495    -0.010765478407     0.022872941373    12.000000000000
         C           -0.534486966505    -1.211780478407    -0.298276558627    12.000000000000
         C           -1.952598266505    -1.193948278407    -0.313493758627    12.000000000000
         C           -2.656486466505     0.008190321593    -0.008047558627    12.000000000000
         C           -1.942743566505     1.203387621593     0.303018441373    12.000000000000
         C           -0.524598566505     1.205843621593     0.304771341373    12.000000000000
         C            1.692797433495    -0.010572778407    -0.009364858627    12.000000000000
         N            2.401939233495    -1.050004178407     0.560207141373    14.003074004430
         N            2.377690733495     1.056901421593    -0.555837858627    14.003074004430
         H            0.012377933495    -2.138752078407    -0.559520958627     1.007825032230
         H           -2.510623066505    -2.115324678407    -0.570658958627     1.007825032230
         H           -3.764883966505     0.014808221593    -0.015966558627     1.007825032230
         H           -2.493753366505     2.133354621593     0.543954841373     1.007825032230
         H            0.029108933495     2.129099021593     0.564522841373     1.007825032230
         H            3.451065133495    -1.123504078407     0.504835641373     1.007825032230
         H            1.881511633495    -1.831604878407     1.032880641373     1.007825032230
         H            3.427994433495     1.130613721593    -0.537336158627     1.007825032230
         H            1.842216133495     1.820324121593    -1.041041658627     1.007825032230

  Basis Set: STO-3G
    Blend: STO-3G
  Basis Set: (STO-3G AUX)
    Blend: DEF2-SVP-JKFIT

  -Total Gradient:
     Atom            X                  Y                   Z
    ------   -----------------  -----------------  -----------------
       1        0.000133465993    -0.000414968647     0.005226483276
       2       -0.000073220299     0.000772535030    -0.002758384590
       3       -0.000013763994    -0.000033801683    -0.000004726047
       4        0.000087741844     0.000003118884     0.000000605119
       5       -0.000043360529     0.000061892412     0.000026166277
       6       -0.000021056160    -0.000030456786    -0.000020398113
       7       -0.000165879965    -0.001767252948    -0.005067416458
       8        0.000128554484     0.001522117083     0.002726606764
       9        0.000000025166    -0.000147382128    -0.000141481300
      10       -0.000001858302    -0.000001983936    -0.000011015481
      11        0.000007324995    -0.000007104729     0.000000306678
      12        0.000008321987     0.000001386808    -0.000001130848
      13        0.000001569672     0.000006539025     0.000000570955
      14       -0.000008167971     0.000003650977     0.000001850528
      15        0.000010261071     0.000019473944    -0.000060422392
      16       -0.000007151460    -0.000026386520    -0.000040075894
      17       -0.000002766665     0.000010542261     0.000067633181
      18       -0.000008788275     0.000036415892     0.000055959642

*** Psi4 exiting successfully. Buy a developer a beer!
