                               Psi4 1.3.2 release

  ==> Input File <==

--------------------------------------------------------------------------
memory 50 GB
molecule {
1 1
C           0.1504632    -0.0004433    -0.0038238
C          -0.5559562    -1.0575361    -0.6573809
C          -1.9768093    -1.0462364    -0.6448254
C          -2.6811252     0.0042332     0.0098778
C          -1.9671109     1.0522663     0.6580176
C          -0.5462178     1.0588349     0.6567344
C           1.6817697    -0.0023095    -0.0113682
N           2.3725653    -0.6327003     0.9989495
N           2.3657508     0.6236567    -1.0291522
H          -0.0061253    -1.8732367    -1.1653615
H          -2.5330300    -1.8607551    -1.1482904
H          -3.7889558     0.0060373     0.0151979
H          -2.5157742     1.8685460     1.1669035
H           0.0112059     1.8722397     1.1600923
H           3.4261024    -0.6664832     1.0475615
H           1.8325404    -1.1067611     1.7686295
H           3.4188914     0.6543894    -1.0876513
H           1.8201684     1.0992668    -1.7939341
}
set {
basis STO-3G
}
gradient('BLYP')
--------------------------------------------------------------------------

    Molecular point group: c1
  Charge       = 1
  Multiplicity = 1
  Basis Set: STO-3G
    Blend: STO-3G
  Basis Set: (STO-3G AUX)
    Blend: DEF2-SVP-JKFIT

    Orbital Energies [Eh]
    ---------------------

    Doubly Occupied:

       1A    -14.138330     2A    -14.138245     3A    -10.102625
       4A     -9.938259     5A     -9.911953     6A     -9.911911
       7A     -9.899050     8A     -9.898706     9A     -9.897390
      10A     -1.053043    11A     -0.974657    12A     -0.871871
      13A     -0.798736    14A     -0.769533    15A     -0.738049
      16A     -0.681508    17A     -0.662389    18A     -0.645286
      19A     -0.625312    20A     -0.601812    21A     -0.565972
      22A     -0.522838    23A     -0.517226    24A     -0.477094
      25A     -0.475342    26A     -0.469006    27A     -0.411906
      28A     -0.404805    29A     -0.399445    30A     -0.376238
      31A     -0.312778    32A     -0.307173

  @DF-RKS Final Energy:  -376.53473763361160

   => Energetics <=

    Nuclear Repulsion Energy =            405.2075991485716600
    One-Electron Energy =               -1301.4816370661608289
    Two-Electron Energy =                 574.0306980355408086
    DFT Exchange-Correlation Energy =     -54.2913977515633377
    Empirical Dispersion Energy =           0.0000000000000000
    VV10 Nonlocal Energy =                  0.0000000000000000
    Total Energy =                       -376.5347376336116554

  Dipole Moment: [D]
     X:     7.5131      Y:    -0.0115      Z:    -0.0365     Total:     7.5132

    Molecular point group: c1

    Geometry (in Angstrom), charge = 1, multiplicity = 1:

       Center              X                  Y                   Z               Mass
    ------------   -----------------  -----------------  -----------------  -----------------
         C            0.172852295275    -0.000214198926    -0.000740679906    12.000000000000
         C           -0.533567104725    -1.057306998926    -0.654297779906    12.000000000000
         C           -1.954420204725    -1.046007298926    -0.641742279906    12.000000000000
         C           -2.658736104725     0.004462301074     0.012960920094    12.000000000000
         C           -1.944721804725     1.052495401074     0.661100720094    12.000000000000
         C           -0.523828704725     1.059064001074     0.659817520094    12.000000000000
         C            1.704158795275    -0.002080398926    -0.008285079906    12.000000000000
         N            2.394954395275    -0.632471198926     1.002032620094    14.003074004430
         N            2.388139895275     0.623885801074    -1.026069079906    14.003074004430
         H            0.016263795275    -1.873007598926    -1.162278379906     1.007825032230
         H           -2.510640904725    -1.860525998926    -1.145207279906     1.007825032230
         H           -3.766566704725     0.006266401074     0.018281020094     1.007825032230
         H           -2.493385104725     1.868775101074     1.169986620094     1.007825032230
         H            0.033594995275     1.872468801074     1.163175420094     1.007825032230
         H            3.448491495275    -0.666254098926     1.050644620094     1.007825032230
         H            1.854929495275    -1.106531998926     1.771712620094     1.007825032230
         H            3.441280495275     0.654618501074    -1.084568179906     1.007825032230
         H            1.842557495275     1.099495901074    -1.790850979906     1.007825032230

  Basis Set: STO-3G
    Blend: STO-3G
  Basis Set: (STO-3G AUX)
    Blend: DEF2-SVP-JKFIT

  -Total Gradient:
     Atom            X                  Y                   Z
    ------   -----------------  -----------------  -----------------
       1       -0.000057226463    -0.000148460206     0.000020699167
       2        0.000070889005    -0.000188611019    -0.000133811339
       3        0.000150719318     0.000219201759     0.000143255350
       4       -0.000282916693    -0.000006115187    -0.000013723629
       5        0.000170786950    -0.000201066277    -0.000120431185
       6        0.000068318690     0.000215078681     0.000116024798
       7        0.000010228992     0.000252792300     0.000072611063
       8       -0.000173651215    -0.000162442607     0.000082885211
       9        0.000031250354     0.000031971470    -0.000138629938
      10        0.000013444792    -0.000034037827     0.000010373129
      11        0.000008432145     0.000023449925     0.000010269235
      12       -0.000028766333    -0.000000924040     0.000002793228
      13        0.000006099002    -0.000014919361    -0.000016195184
      14        0.000012227551     0.000006614305     0.000029686615
      15       -0.000035304817     0.000050661675    -0.000043760043
      16        0.000018339674    -0.000022942398    -0.000003240438
      17       -0.000019208070     0.000007084983    -0.000011958678
      18        0.000014159196    -0.000027033008    -0.000006988461

*** Psi4 exiting successfully. Buy a developer a beer!
