                               Psi4 1.3.2 release

  ==> Input File <==

--------------------------------------------------------------------------
memory 50 GB
molecule {
1 1
C           0.1529891     0.0034258    -0.0109341
C          -0.5718456    -0.7335336    -1.0097175
C          -1.9891598    -0.7340235    -0.9896408
C          -2.6922260     0.0006659     0.0107705
C          -1.9765297     0.7361464     1.0016283
C          -0.5591128     0.7360847     1.0001189
C           1.6599718    -0.0025734    -0.0167808
N           2.3707013     0.1281835     1.1616706
N           2.3586906    -0.1480541    -1.2007645
H          -0.0337436    -1.3332438    -1.7693838
H          -2.5485445    -1.3129715    -1.7501521
H          -3.8007798    -0.0003224     0.0186179
H          -2.5254733     1.3134338     1.7709751
H          -0.0106554     1.3357034     1.7524364
H           3.4220832     0.1687448     1.1842718
H           1.8620079     0.1339231     2.0806735
H           3.4091602    -0.2018390    -1.2353557
H           1.8413633    -0.1443219    -2.1149466
}
set {
basis STO-3G
}
gradient('BLYP')
--------------------------------------------------------------------------

    Molecular point group: c1
  Charge       = 1
  Multiplicity = 1
  Basis Set: STO-3G
    Blend: STO-3G
  Basis Set: (STO-3G AUX)
    Blend: DEF2-SVP-JKFIT

    Orbital Energies [Eh]
    ---------------------

    Doubly Occupied:

       1A    -14.122432     2A    -14.122298     3A    -10.091998
       4A     -9.951336     5A     -9.925194     6A     -9.925091
       7A     -9.913740     8A     -9.911015     9A     -9.910800
      10A     -1.042033    11A     -0.963045    12A     -0.880574
      13A     -0.804920    14A     -0.780917    15A     -0.736873
      16A     -0.677785    17A     -0.666748    18A     -0.635166
      19A     -0.632139    20A     -0.593794    21A     -0.570289
      22A     -0.535756    23A     -0.510635    24A     -0.488768
      25A     -0.485996    26A     -0.480160    27A     -0.417368
      28A     -0.417186    29A     -0.410227    30A     -0.363021
      31A     -0.323928    32A     -0.318729

  @DF-RKS Final Energy:  -376.54215650973902

   => Energetics <=

    Nuclear Repulsion Energy =            406.3995235337336567
    One-Electron Energy =               -1303.6561367881449769
    Two-Electron Energy =                 575.0081955926673345
    DFT Exchange-Correlation Energy =     -54.2937388479949874
    Empirical Dispersion Energy =           0.0000000000000000
    VV10 Nonlocal Energy =                  0.0000000000000000
    Total Energy =                       -376.5421565097390157

  Dipole Moment: [D]
     X:     6.4445      Y:    -0.0195      Z:    -0.0327     Total:     6.4446

    Molecular point group: c1

    Geometry (in Angstrom), charge = 1, multiplicity = 1:

       Center              X                  Y                   Z               Mass
    ------------   -----------------  -----------------  -----------------  -----------------
         C            0.184843920675     0.005450596115    -0.004446831965    12.000000000000
         C           -0.539990779325    -0.731508803885    -1.003230231965    12.000000000000
         C           -1.957304979325    -0.731998703885    -0.983153531965    12.000000000000
         C           -2.660371179325     0.002690696115     0.017257768035    12.000000000000
         C           -1.944674879325     0.738171196115     1.008115568035    12.000000000000
         C           -0.527257979325     0.738109496115     1.006606168035    12.000000000000
         C            1.691826620675    -0.000548603885    -0.010293531965    12.000000000000
         N            2.402556120675     0.130208296115     1.168157868035    14.003074004430
         N            2.390545420675    -0.146029303885    -1.194277231965    14.003074004430
         H           -0.001888779325    -1.331219003885    -1.762896531965     1.007825032230
         H           -2.516689679325    -1.310946703885    -1.743664831965     1.007825032230
         H           -3.768924979325     0.001702396115     0.025105168035     1.007825032230
         H           -2.493618479325     1.315458596115     1.777462368035     1.007825032230
         H            0.021199420675     1.337728196115     1.758923668035     1.007825032230
         H            3.453938020675     0.170769596115     1.190759068035     1.007825032230
         H            1.893862720675     0.135947896115     2.087160768035     1.007825032230
         H            3.441015020675    -0.199814203885    -1.228868431965     1.007825032230
         H            1.873218120675    -0.142297103885    -2.108459331965     1.007825032230

  Basis Set: STO-3G
    Blend: STO-3G
  Basis Set: (STO-3G AUX)
    Blend: DEF2-SVP-JKFIT

  -Total Gradient:
     Atom            X                  Y                   Z
    ------   -----------------  -----------------  -----------------
       1        0.000075552063     0.000349346673    -0.000435673732
       2       -0.000022647057    -0.000417516151     0.000095801537
       3        0.000025585448     0.000060527357     0.000056439907
       4        0.000266176830    -0.000026061040    -0.000035051573
       5       -0.000160261610     0.000205583349     0.000285448661
       6       -0.000264242292    -0.000228584898    -0.000141490968
       7        0.000081034274     0.000465031915     0.000088269062
       8       -0.000008473608    -0.000432791171     0.000161693596
       9        0.000089580918     0.000055445113     0.000185897410
      10       -0.000020847878    -0.000011216839    -0.000019172033
      11        0.000022226054    -0.000002321797    -0.000010943370
      12        0.000019283463     0.000015667040     0.000027754326
      13       -0.000020578949     0.000010320835     0.000021311002
      14       -0.000081501361     0.000036207200    -0.000012720601
      15        0.000003351830    -0.000018143088    -0.000257093634
      16        0.000002945113    -0.000001037421    -0.000012147713
      17       -0.000001538745    -0.000033024985    -0.000027127169
      18        0.000009041655    -0.000026418295     0.000028980178

*** Psi4 exiting successfully. Buy a developer a beer!
