                               Psi4 1.3.2 release

  ==> Input File <==

--------------------------------------------------------------------------
memory 50 GB
molecule {
1 1
C           0.1471732     0.0500972    -0.0108589
C          -0.5458602    -0.9364512    -0.7824903
C          -1.9658614    -0.9565533    -0.7621277
C          -2.6855195    -0.0068140     0.0187698
C          -1.9879607     0.9626300     0.7957078
C          -0.5679353     0.9869945     0.8003261
C           1.6721183     0.0244912     0.0296914
N           2.3219040    -0.4349049     1.1547947
N           2.3975550     0.3768886    -1.0874207
H           0.0167460    -1.6773216    -1.3829395
H          -2.5099194    -1.7181324    -1.3540754
H          -3.7933294    -0.0255051     0.0258702
H          -2.5496815     1.6979957     1.4040148
H          -0.0226952     1.7370525     1.4054031
H           3.3723216    -0.4469348     1.2508047
H           1.7519432    -0.7194797     1.9928745
H           3.4498146     0.3227254    -1.1350375
H           1.8880110     0.7343066    -1.9363106
}
set {
basis STO-3G
}
gradient('BLYP')
--------------------------------------------------------------------------

    Molecular point group: c1
  Charge       = 1
  Multiplicity = 1
  Basis Set: STO-3G
    Blend: STO-3G
  Basis Set: (STO-3G AUX)
    Blend: DEF2-SVP-JKFIT

    Orbital Energies [Eh]
    ---------------------

    Doubly Occupied:

       1A    -14.134983     2A    -14.134860     3A    -10.099932
       4A     -9.940598     5A     -9.914651     6A     -9.914063
       7A     -9.901738     8A     -9.901138     9A     -9.900329
      10A     -1.050509    11A     -0.972191    12A     -0.873612
      13A     -0.799853    14A     -0.771714    15A     -0.737369
      16A     -0.680480    17A     -0.661742    18A     -0.644863
      19A     -0.626225    20A     -0.599602    21A     -0.566989
      22A     -0.524971    23A     -0.516435    24A     -0.478843
      25A     -0.477148    26A     -0.470331    27A     -0.413445
      28A     -0.407037    29A     -0.401504    30A     -0.373392
      31A     -0.315227    32A     -0.309469

  @DF-RKS Final Energy:  -376.53606391265259

   => Energetics <=

    Nuclear Repulsion Energy =            405.4991968217589715
    One-Electron Energy =               -1302.0337209714946312
    Two-Electron Energy =                 574.2902856732414421
    DFT Exchange-Correlation Energy =     -54.2918254361583195
    Empirical Dispersion Energy =           0.0000000000000000
    VV10 Nonlocal Energy =                  0.0000000000000000
    Total Energy =                       -376.5360639126525939

  Dipole Moment: [D]
     X:     7.2814      Y:    -0.0434      Z:     0.1272     Total:     7.2827

    Molecular point group: c1

    Geometry (in Angstrom), charge = 1, multiplicity = 1:

       Center              X                  Y                   Z               Mass
    ------------   -----------------  -----------------  -----------------  -----------------
         C            0.176109082390     0.045271434224    -0.029726160884    12.000000000000
         C           -0.516924317610    -0.941276965776    -0.801357560884    12.000000000000
         C           -1.936925517610    -0.961379065776    -0.780994960884    12.000000000000
         C           -2.656583617610    -0.011639765776    -0.000097460884    12.000000000000
         C           -1.959024817610     0.957804234224     0.776840539116    12.000000000000
         C           -0.538999417610     0.982168734224     0.781458839116    12.000000000000
         C            1.701054182390     0.019665434224     0.010824139116    12.000000000000
         N            2.350839882390    -0.439730665776     1.135927439116    14.003074004430
         N            2.426490882390     0.372062834224    -1.106287960884    14.003074004430
         H            0.045681882390    -1.682147365776    -1.401806760884     1.007825032230
         H           -2.480983517610    -1.722958165776    -1.372942660884     1.007825032230
         H           -3.764393517610    -0.030330865776     0.007002939116     1.007825032230
         H           -2.520745617610     1.693169934224     1.385147539116     1.007825032230
         H            0.006240682390     1.732226734224     1.386535839116     1.007825032230
         H            3.401257482390    -0.451760565776     1.231937439116     1.007825032230
         H            1.780879082390    -0.724305465776     1.974007239116     1.007825032230
         H            3.478750482390     0.317899634224    -1.153904760884     1.007825032230
         H            1.916946882390     0.729480834224    -1.955177860884     1.007825032230

  Basis Set: STO-3G
    Blend: STO-3G
  Basis Set: (STO-3G AUX)
    Blend: DEF2-SVP-JKFIT

  -Total Gradient:
     Atom            X                  Y                   Z
    ------   -----------------  -----------------  -----------------
       1        0.000192852098     0.001788626663    -0.005122720145
       2       -0.000156567149    -0.002341122780     0.003084666772
       3        0.000014435512    -0.000012964265    -0.000010349478
       4       -0.000003335205     0.000013886502     0.000013728469
       5       -0.000021703097    -0.000031987951    -0.000026623864
       6        0.000010166324    -0.000024070289    -0.000017966655
       7       -0.000025838772     0.004352155345     0.003612355511
       8       -0.000012021086    -0.003699367336    -0.001507972218
       9        0.000007267483    -0.000048880703    -0.000013386743
      10        0.000000378276     0.000002804860     0.000001276475
      11       -0.000002929106    -0.000001261554     0.000002756046
      12        0.000000631256    -0.000000845930    -0.000003472055
      13        0.000005393697    -0.000000896619     0.000000422267
      14        0.000001008200     0.000001934884     0.000002481555
      15       -0.000000428084    -0.000026865155     0.000001290891
      16        0.000002276537    -0.000009061485    -0.000003608883
      17        0.000004626698     0.000012025564     0.000000793878
      18        0.000005577492     0.000022349077     0.000007495957

*** Psi4 exiting successfully. Buy a developer a beer!
