                               Psi4 1.3.2 release

  ==> Input File <==

--------------------------------------------------------------------------
memory 50 GB
molecule {
1 1
C           0.1619481    -0.0019667     0.0038696
C          -0.5572307    -1.2272327    -0.2133128
C          -1.9746927    -1.2173501    -0.2191802
C          -2.6834911     0.0012436    -0.0009345
C          -1.9726587     1.2184693     0.2185440
C          -0.5551880     1.2254532     0.2154909
C           1.6688603    -0.0029077    -0.0006099
N           2.3731884    -1.1224686     0.4014279
N           2.3723418     1.1180950    -0.4002043
H          -0.0142844    -2.1708666    -0.4160248
H          -2.5295746    -2.1584515    -0.4005795
H          -3.7920779     0.0024193    -0.0022578
H          -2.5260266     2.1609321     0.3974960
H          -0.0107788     2.1681343     0.4186708
H           3.4240726    -1.1707666     0.3711532
H           1.8593465    -1.9433226     0.8083993
H           3.4234058     1.1657218    -0.3753604
H           1.8576276     1.9380743    -0.8078319
}
set {
basis STO-3G
}
gradient('BLYP')
--------------------------------------------------------------------------

    Molecular point group: c1
  Charge       = 1
  Multiplicity = 1
  Basis Set: STO-3G
    Blend: STO-3G
  Basis Set: (STO-3G AUX)
    Blend: DEF2-SVP-JKFIT

    Orbital Energies [Eh]
    ---------------------

    Doubly Occupied:

       1A    -14.122446     2A    -14.122362     3A    -10.092012
       4A     -9.951279     5A     -9.925133     6A     -9.925075
       7A     -9.913721     8A     -9.910984     9A     -9.910774
      10A     -1.041982    11A     -0.963126    12A     -0.880570
      13A     -0.804917    14A     -0.780881    15A     -0.736890
      16A     -0.677706    17A     -0.666802    18A     -0.635228
      19A     -0.632067    20A     -0.593798    21A     -0.570255
      22A     -0.535740    23A     -0.510644    24A     -0.488720
      25A     -0.485957    26A     -0.480128    27A     -0.417360
      28A     -0.417208    29A     -0.410178    30A     -0.363080
      31A     -0.323915    32A     -0.318695

  @DF-RKS Final Energy:  -376.54215883040308

   => Energetics <=

    Nuclear Repulsion Energy =            406.4189257524794812
    One-Electron Energy =               -1303.6955934433296989
    Two-Electron Energy =                 575.0282631173715799
    DFT Exchange-Correlation Energy =     -54.2937542569244869
    Empirical Dispersion Energy =           0.0000000000000000
    VV10 Nonlocal Energy =                  0.0000000000000000
    Total Energy =                       -376.5421588304031388

  Dipole Moment: [D]
     X:     6.4455      Y:    -0.0073      Z:    -0.0158     Total:     6.4455

    Molecular point group: c1

    Geometry (in Angstrom), charge = 1, multiplicity = 1:

       Center              X                  Y                   Z               Mass
    ------------   -----------------  -----------------  -----------------  -----------------
         C            0.185011811304    -0.000967942573     0.003397545932    12.000000000000
         C           -0.534166988696    -1.226233942573    -0.213784854068    12.000000000000
         C           -1.951628988696    -1.216351342573    -0.219652254068    12.000000000000
         C           -2.660427388696     0.002242357427    -0.001406554068    12.000000000000
         C           -1.949594988696     1.219468057427     0.218071945932    12.000000000000
         C           -0.532124288696     1.226451957427     0.215018845932    12.000000000000
         C            1.691924011304    -0.001908942573    -0.001081954068    12.000000000000
         N            2.396252111304    -1.121469842573     0.400955845932    14.003074004430
         N            2.395405511304     1.119093757427    -0.400676354068    14.003074004430
         H            0.008779311304    -2.169867842573    -0.416496854068     1.007825032230
         H           -2.506510888696    -2.157452742573    -0.401051554068     1.007825032230
         H           -3.769014188696     0.003418057427    -0.002729854068     1.007825032230
         H           -2.502962888696     2.161930857427     0.397023945932     1.007825032230
         H            0.012284911304     2.169133057427     0.418198745932     1.007825032230
         H            3.447136311304    -1.169767842573     0.370681145932     1.007825032230
         H            1.882410211304    -1.942323842573     0.807927245932     1.007825032230
         H            3.446469511304     1.166720557427    -0.375832454068     1.007825032230
         H            1.880691311304     1.939073057427    -0.808303954068     1.007825032230

  Basis Set: STO-3G
    Blend: STO-3G
  Basis Set: (STO-3G AUX)
    Blend: DEF2-SVP-JKFIT

  -Total Gradient:
     Atom            X                  Y                   Z
    ------   -----------------  -----------------  -----------------
       1       -0.000003740642    -0.000034383068     0.000727083334
       2        0.000000474764     0.000054043276    -0.000379689184
       3        0.000009331184     0.000004211511     0.000014410864
       4        0.000008291958     0.000001467427    -0.000009017769
       5       -0.000004735367     0.000013948637     0.000009015738
       6       -0.000009084310     0.000001937324    -0.000037355360
       7       -0.000022126709    -0.000139782936    -0.000686143058
       8       -0.000015075068     0.000105096423     0.000357251037
       9        0.000041160153    -0.000077391249    -0.000001634234
      10       -0.000000172976    -0.000007948485     0.000012733505
      11        0.000003680971    -0.000001373485    -0.000000680473
      12        0.000001878696     0.000001812563     0.000001661507
      13       -0.000000148403     0.000001768003    -0.000004735787
      14        0.000000411303    -0.000001530564     0.000007231724
      15        0.000004916308     0.000040279269    -0.000016388909
      16       -0.000001141089    -0.000003093923     0.000005722430
      17        0.000000348631     0.000045186066    -0.000011078075
      18        0.000000270268    -0.000003679814     0.000011854992

*** Psi4 exiting successfully. Buy a developer a beer!
