                               Psi4 1.3.2 release

  ==> Input File <==

--------------------------------------------------------------------------
memory 50 GB
molecule {
1 1
C           0.1520754     0.0354375     0.0309364
C          -0.5660611    -0.7548244     0.9902676
C          -1.9838780    -0.7720419     0.9546413
C          -2.6876167    -0.0062556    -0.0212417
C          -1.9727072     0.7739697    -0.9776530
C          -0.5547086     0.7878145    -0.9665047
C           1.6618212     0.0117849     0.0244678
N           2.3525513    -0.1036823    -1.1659371
N           2.3637427     0.0420216     1.2134673
H          -0.0202987    -1.3693402     1.7325455
H          -2.5426820    -1.3893333     1.6848073
H          -3.7958442    -0.0202479    -0.0388757
H          -2.5224314     1.3710029    -1.7311980
H          -0.0002749     1.4084559    -1.6972718
H           3.4034572    -0.0628351    -1.2216703
H           1.8175285    -0.1889650    -2.0668359
H           3.4119626    -0.0466159     1.2606778
H           1.8448883     0.1891234     2.1157564
}
set {
basis STO-3G
}
gradient('BLYP')
--------------------------------------------------------------------------

    Molecular point group: c1
  Charge       = 1
  Multiplicity = 1
  Basis Set: STO-3G
    Blend: STO-3G
  Basis Set: (STO-3G AUX)
    Blend: DEF2-SVP-JKFIT

    Orbital Energies [Eh]
    ---------------------

    Doubly Occupied:

       1A    -14.125474     2A    -14.125191     3A    -10.093389
       4A     -9.948266     5A     -9.922417     6A     -9.921920
       7A     -9.910647     8A     -9.908508     9A     -9.908245
      10A     -1.043737    11A     -0.965293    12A     -0.878864
      13A     -0.803593    14A     -0.778535    15A     -0.736489
      16A     -0.678190    17A     -0.664861    18A     -0.638668
      19A     -0.629944    20A     -0.594663    21A     -0.569692
      22A     -0.532643    23A     -0.513315    24A     -0.484675
      25A     -0.484062    26A     -0.476608    27A     -0.416879
      28A     -0.414533    29A     -0.407928    30A     -0.365342
      31A     -0.322009    32A     -0.316455

  @DF-RKS Final Energy:  -376.54115441037300

   => Energetics <=

    Nuclear Repulsion Energy =            406.3061818707080874
    One-Electron Energy =               -1303.5252287918447109
    Two-Electron Energy =                 574.9716235459568452
    DFT Exchange-Correlation Energy =     -54.2937310351931828
    Empirical Dispersion Energy =           0.0000000000000000
    VV10 Nonlocal Energy =                  0.0000000000000000
    Total Energy =                       -376.5411544103729398

  Dipole Moment: [D]
     X:     6.6312      Y:    -0.0257      Z:     0.0102     Total:     6.6313

    Molecular point group: c1

    Geometry (in Angstrom), charge = 1, multiplicity = 1:

       Center              X                  Y                   Z               Mass
    ------------   -----------------  -----------------  -----------------  -----------------
         C            0.183142430125     0.035953117155     0.021663215086    12.000000000000
         C           -0.534994069875    -0.754308782845     0.980994415086    12.000000000000
         C           -1.952810969875    -0.771526282845     0.945368115086    12.000000000000
         C           -2.656549669875    -0.005739982845    -0.030514884914    12.000000000000
         C           -1.941640169875     0.774485317155    -0.986926184914    12.000000000000
         C           -0.523641569875     0.788330117155    -0.975777884914    12.000000000000
         C            1.692888230125     0.012300517155     0.015194615086    12.000000000000
         N            2.383618330125    -0.103166682845    -1.175210284914    14.003074004430
         N            2.394809730125     0.042537217155     1.204194115086    14.003074004430
         H            0.010768330125    -1.368824582845     1.723272315086     1.007825032230
         H           -2.511614969875    -1.388817682845     1.675534115086     1.007825032230
         H           -3.764777169875    -0.019732282845    -0.048148884914     1.007825032230
         H           -2.491364369875     1.371518517155    -1.740471184914     1.007825032230
         H            0.030792130125     1.408971517155    -1.706544984914     1.007825032230
         H            3.434524230125    -0.062319482845    -1.230943484914     1.007825032230
         H            1.848595530125    -0.188449382845    -2.076109084914     1.007825032230
         H            3.443029630125    -0.046100282845     1.251404615086     1.007825032230
         H            1.875955330125     0.189639017155     2.106483215086     1.007825032230

  Basis Set: STO-3G
    Blend: STO-3G
  Basis Set: (STO-3G AUX)
    Blend: DEF2-SVP-JKFIT

  -Total Gradient:
     Atom            X                  Y                   Z
    ------   -----------------  -----------------  -----------------
       1       -0.000057000501     0.001791944188     0.002892849739
       2        0.000177153142    -0.002362101371    -0.001504187985
       3        0.000247177294     0.000267943399    -0.000349454725
       4       -0.000222190196    -0.000019610728     0.000015559655
       5       -0.000040817730     0.000084319999    -0.000121703128
       6       -0.000106984424    -0.000104171736     0.000165563513
       7       -0.000098391052     0.003222400622    -0.001237762174
       8        0.000079557317    -0.003102481121     0.000275276759
       9        0.000051232478     0.000197397323    -0.000239999744
      10        0.000055152113    -0.000009351958     0.000017643073
      11        0.000036656036     0.000019572187    -0.000019585778
      12       -0.000015271370     0.000029207262    -0.000032309032
      13       -0.000025906345    -0.000004173951     0.000000566632
      14       -0.000033934494     0.000012607993     0.000006968699
      15        0.000028068593     0.000068161276     0.000084443609
      16       -0.000017997372     0.000045702074    -0.000009825578
      17       -0.000003939709    -0.000059229730     0.000036646223
      18       -0.000025608524    -0.000082143283    -0.000003980999

*** Psi4 exiting successfully. Buy a developer a beer!
