                               Psi4 1.3.2 release

  ==> Input File <==

--------------------------------------------------------------------------
memory 50 GB
molecule {
1 1
C           0.1497850     0.0369986    -0.0337564
C          -0.5681182    -0.7900636    -0.9617233
C          -1.9859086    -0.8090036    -0.9258615
C          -2.6892231    -0.0070679     0.0208099
C          -1.9746173     0.8096253     0.9465233
C          -0.5565798     0.8259347     0.9351532
C           1.6596869     0.0164438    -0.0282796
N           2.3501163    -0.0528963     1.1657427
N           2.3600978     0.0015521    -1.2185896
H          -0.0215078    -1.4316573    -1.6800381
H          -2.5440913    -1.4546581    -1.6315903
H          -3.7974122    -0.0215058     0.0398867
H          -2.5250816     1.4339396     1.6770472
H          -0.0026331     1.4738414     1.6422380
H           3.4011734    -0.0171148     1.2214862
H           1.8145137    -0.1152506     2.0681392
H           3.4093738    -0.0760501    -1.2624036
H           1.8414214     0.1260061    -2.1244346
}
set {
basis STO-3G
}
gradient('BLYP')
--------------------------------------------------------------------------

    Molecular point group: c1
  Charge       = 1
  Multiplicity = 1
  Basis Set: STO-3G
    Blend: STO-3G
  Basis Set: (STO-3G AUX)
    Blend: DEF2-SVP-JKFIT

    Orbital Energies [Eh]
    ---------------------

    Doubly Occupied:

       1A    -14.125585     2A    -14.125272     3A    -10.093428
       4A     -9.948129     5A     -9.922242     6A     -9.921824
       7A     -9.910519     8A     -9.908407     9A     -9.908145
      10A     -1.043747    11A     -0.965410    12A     -0.878780
      13A     -0.803529    14A     -0.778447    15A     -0.736470
      16A     -0.678130    17A     -0.664914    18A     -0.638620
      19A     -0.629852    20A     -0.594831    21A     -0.569587
      22A     -0.532510    23A     -0.513203    24A     -0.484663
      25A     -0.483952    26A     -0.476552    27A     -0.416766
      28A     -0.414380    29A     -0.407901    30A     -0.365488
      31A     -0.321892    32A     -0.316365

  @DF-RKS Final Energy:  -376.54115730273827

   => Energetics <=

    Nuclear Repulsion Energy =            406.3184574311819688
    One-Electron Energy =               -1303.5527513308129528
    Two-Electron Energy =                 574.9869016433452771
    DFT Exchange-Correlation Energy =     -54.2937650464526129
    Empirical Dispersion Energy =           0.0000000000000000
    VV10 Nonlocal Energy =                  0.0000000000000000
    Total Energy =                       -376.5411573027383270

  Dipole Moment: [D]
     X:     6.6402      Y:    -0.0085      Z:    -0.0119     Total:     6.6403

    Molecular point group: c1

    Geometry (in Angstrom), charge = 1, multiplicity = 1:

       Center              X                  Y                   Z               Mass
    ------------   -----------------  -----------------  -----------------  -----------------
         C            0.183103897515     0.035410049947    -0.022559437792    12.000000000000
         C           -0.534799302485    -0.791652150053    -0.950526337792    12.000000000000
         C           -1.952589702485    -0.810592150053    -0.914664537792    12.000000000000
         C           -2.655904202485    -0.008656450053     0.032006862208    12.000000000000
         C           -1.941298402485     0.808036749947     0.957720262208    12.000000000000
         C           -0.523260902485     0.824346149947     0.946350162208    12.000000000000
         C            1.693005797515     0.014855249947    -0.017082637792    12.000000000000
         N            2.383435197515    -0.054484850053     1.176939662208    14.003074004430
         N            2.393416697515    -0.000036450053    -1.207392637792    14.003074004430
         H            0.011811097515    -1.433245850053    -1.668841137792     1.007825032230
         H           -2.510772402485    -1.456246650053    -1.620393337792     1.007825032230
         H           -3.764093302485    -0.023094350053     0.051083662208     1.007825032230
         H           -2.491762702485     1.432351049947     1.688244162208     1.007825032230
         H            0.030685797515     1.472252849947     1.653434962208     1.007825032230
         H            3.434492297515    -0.018703350053     1.232683162208     1.007825032230
         H            1.847832597515    -0.116839150053     2.079336162208     1.007825032230
         H            3.442692697515    -0.077638650053    -1.251206637792     1.007825032230
         H            1.874740297515     0.124417549947    -2.113237637792     1.007825032230

  Basis Set: STO-3G
    Blend: STO-3G
  Basis Set: (STO-3G AUX)
    Blend: DEF2-SVP-JKFIT

  -Total Gradient:
     Atom            X                  Y                   Z
    ------   -----------------  -----------------  -----------------
       1       -0.000129343408     0.001605874318    -0.002862947788
       2        0.000010808388    -0.002044122570     0.001873286725
       3        0.000002383132    -0.000025266628    -0.000008773604
       4       -0.000055586986     0.000025074455     0.000005056152
       5        0.000025147678    -0.000114368401    -0.000089105781
       6        0.000182115489     0.000159705210     0.000039641047
       7        0.000077881466     0.003435668417     0.001169614586
       8       -0.000018748442    -0.002907391354    -0.000199936013
       9       -0.000082453395    -0.000087452301    -0.000000490166
      10       -0.000016675274    -0.000028691559     0.000010938732
      11       -0.000000437668    -0.000003413749     0.000006087465
      12       -0.000003328724    -0.000002822724    -0.000008927407
      13        0.000017447285    -0.000000641388    -0.000008068064
      14        0.000002982817    -0.000018496942     0.000037169105
      15        0.000002173209    -0.000036390021     0.000055175621
      16        0.000007236780    -0.000024377524    -0.000008978025
      17        0.000011210870     0.000045852443     0.000015807378
      18       -0.000006478907     0.000017623386    -0.000002885169

*** Psi4 exiting successfully. Buy a developer a beer!
