                               Psi4 1.3.2 release

  ==> Input File <==

--------------------------------------------------------------------------
memory 50 GB
molecule {
1 1
C           0.1673659    -0.0006398    -0.0022600
C          -0.5512697    -1.2182128     0.2561799
C          -1.9687425    -1.2087237     0.2612875
C          -2.6772440     0.0016482     0.0005894
C          -1.9672381     1.2110886    -0.2605875
C          -0.5497791     1.2184990    -0.2570923
C           1.6743070    -0.0010949     0.0011690
N           2.3778362    -1.1337446    -0.3639776
N           2.3776657     1.1327160     0.3633605
H          -0.0076447    -2.1538918     0.4912880
H          -2.5236016    -2.1431066     0.4746919
H          -3.7858201     0.0024910     0.0012905
H          -2.5209733     2.1464945    -0.4724365
H          -0.0050753     2.1535639    -0.4921890
H           3.4288124    -1.1823638    -0.3366436
H           1.8625994    -1.9648137    -0.7478719
H           3.4289349     1.1774620     0.3401146
H           1.8635480     1.9633278     0.7498261
}
set {
basis STO-3G
}
gradient('BLYP')
--------------------------------------------------------------------------

    Molecular point group: c1
  Charge       = 1
  Multiplicity = 1
  Basis Set: STO-3G
    Blend: STO-3G
  Basis Set: (STO-3G AUX)
    Blend: DEF2-SVP-JKFIT

    Orbital Energies [Eh]
    ---------------------

    Doubly Occupied:

       1A    -14.122487     2A    -14.122404     3A    -10.092005
       4A     -9.951198     5A     -9.925071     6A     -9.925015
       7A     -9.913660     8A     -9.910959     9A     -9.910747
      10A     -1.041972    11A     -0.963188    12A     -0.880538
      13A     -0.804886    14A     -0.780862    15A     -0.736851
      16A     -0.677629    17A     -0.666821    18A     -0.635250
      19A     -0.631995    20A     -0.593814    21A     -0.570213
      22A     -0.535671    23A     -0.510599    24A     -0.488715
      25A     -0.485893    26A     -0.480070    27A     -0.417300
      28A     -0.417125    29A     -0.410208    30A     -0.363159
      31A     -0.323864    32A     -0.318678

  @DF-RKS Final Energy:  -376.54215770259054

   => Energetics <=

    Nuclear Repulsion Energy =            406.4263644008088363
    One-Electron Energy =               -1303.7120547093286405
    Two-Electron Energy =                 575.0372622305749246
    DFT Exchange-Correlation Energy =     -54.2937296246456427
    Empirical Dispersion Energy =           0.0000000000000000
    VV10 Nonlocal Energy =                  0.0000000000000000
    Total Energy =                       -376.5421577025906004

  Dipole Moment: [D]
     X:     6.4483      Y:    -0.0079      Z:     0.0165     Total:     6.4484

    Molecular point group: c1

    Geometry (in Angstrom), charge = 1, multiplicity = 1:

       Center              X                  Y                   Z               Mass
    ------------   -----------------  -----------------  -----------------  -----------------
         C            0.184918094871    -0.000768052646    -0.002185038776    12.000000000000
         C           -0.533717505129    -1.218341052646     0.256254861224    12.000000000000
         C           -1.951190305129    -1.208851952646     0.261362461224    12.000000000000
         C           -2.659691805129     0.001519947354     0.000664361224    12.000000000000
         C           -1.949685905129     1.210960347354    -0.260512538776    12.000000000000
         C           -0.532226905129     1.218370747354    -0.257017338776    12.000000000000
         C            1.691859194871    -0.001223152646     0.001243961224    12.000000000000
         N            2.395388394871    -1.133872852646    -0.363902638776    14.003074004430
         N            2.395217894871     1.132587747354     0.363435461224    14.003074004430
         H            0.009907494871    -2.154020052646     0.491362961224     1.007825032230
         H           -2.506049405129    -2.143234852646     0.474766861224     1.007825032230
         H           -3.768267905129     0.002362747354     0.001365461224     1.007825032230
         H           -2.503421105129     2.146366247354    -0.472361538776     1.007825032230
         H            0.012476894871     2.153435647354    -0.492114038776     1.007825032230
         H            3.446364594871    -1.182492052646    -0.336568638776     1.007825032230
         H            1.880151594871    -1.964941952646    -0.747796938776     1.007825032230
         H            3.446487094871     1.177333747354     0.340189561224     1.007825032230
         H            1.881100194871     1.963199547354     0.749901061224     1.007825032230

  Basis Set: STO-3G
    Blend: STO-3G
  Basis Set: (STO-3G AUX)
    Blend: DEF2-SVP-JKFIT

  -Total Gradient:
     Atom            X                  Y                   Z
    ------   -----------------  -----------------  -----------------
       1       -0.000033674536    -0.000022994635    -0.000535683651
       2       -0.000024224492     0.000044963477     0.000320984765
       3       -0.000120931781    -0.000103904114     0.000033775515
       4        0.000271764829    -0.000017228512    -0.000001096316
       5       -0.000099614859     0.000132793225    -0.000021690832
       6       -0.000035036741    -0.000047573899    -0.000054713523
       7       -0.000029880404    -0.000160595710     0.000527198929
       8        0.000065655279     0.000202658449    -0.000189771806
       9       -0.000036433315     0.000099626045    -0.000021992869
      10        0.000010689104     0.000009562774    -0.000021828436
      11        0.000004154758    -0.000016233894     0.000004001884
      12        0.000021988777     0.000000136313    -0.000003473207
      13        0.000004710945     0.000019333592     0.000000712809
      14        0.000011853663    -0.000001168873     0.000004106405
      15        0.000002264830    -0.000131789722    -0.000074668586
      16       -0.000004895496     0.000027998964    -0.000032507477
      17        0.000019049006    -0.000034553710     0.000018223216
      18       -0.000011808005    -0.000000997578     0.000048341595

*** Psi4 exiting successfully. Buy a developer a beer!
