                               Psi4 1.3.2 release

  ==> Input File <==

--------------------------------------------------------------------------
memory 50 GB
molecule {
1 1
C           0.1614175    -0.0132341    -0.0251808
C          -0.5580310    -1.2016396     0.3361791
C          -1.9762358    -1.1830314     0.3498611
C          -2.6814308     0.0070312     0.0030463
C          -1.9656524     1.1898226    -0.3480673
C          -0.5474142     1.1921507    -0.3491898
C           1.6710500    -0.0122757     0.0072305
N           2.3754922    -1.0730598    -0.5279835
N           2.3586671     1.0715467     0.5173981
H          -0.0119623    -2.1193134     0.6298583
H          -2.5340735    -2.0952554     0.6381296
H          -3.7898540     0.0140585     0.0099825
H          -2.5158427     2.1112827    -0.6213406
H           0.0059057     2.1062133    -0.6403126
H           3.4242675    -1.1507507    -0.4720347
H           1.8504002    -1.8693412    -0.9700160
H           3.4089863     1.1431247     0.4927460
H           1.8253831     1.8532595     0.9750945
}
set {
basis STO-3G
}
gradient('BLYP')
--------------------------------------------------------------------------

    Molecular point group: c1
  Charge       = 1
  Multiplicity = 1
  Basis Set: STO-3G
    Blend: STO-3G
  Basis Set: (STO-3G AUX)
    Blend: DEF2-SVP-JKFIT

    Orbital Energies [Eh]
    ---------------------

    Doubly Occupied:

       1A    -14.125518     2A    -14.125413     3A    -10.093504
       4A     -9.948151     5A     -9.922215     6A     -9.921875
       7A     -9.910609     8A     -9.908406     9A     -9.908152
      10A     -1.043652    11A     -0.965442    12A     -0.878765
      13A     -0.803586    14A     -0.778346    15A     -0.736574
      16A     -0.678173    17A     -0.664818    18A     -0.638735
      19A     -0.629856    20A     -0.594831    21A     -0.569601
      22A     -0.532564    23A     -0.513332    24A     -0.484332
      25A     -0.484118    26A     -0.476524    27A     -0.416826
      28A     -0.414619    29A     -0.407670    30A     -0.365457
      31A     -0.322005    32A     -0.316301

  @DF-RKS Final Energy:  -376.54113696328898

   => Energetics <=

    Nuclear Repulsion Energy =            406.2560483921217838
    One-Electron Energy =               -1303.4272140568316445
    Two-Electron Energy =                 574.9235148278453380
    DFT Exchange-Correlation Energy =     -54.2934861264244333
    Empirical Dispersion Energy =           0.0000000000000000
    VV10 Nonlocal Energy =                  0.0000000000000000
    Total Energy =                       -376.5411369632889773

  Dipole Moment: [D]
     X:     6.6341      Y:    -0.0383      Z:     0.1263     Total:     6.6354

    Molecular point group: c1

    Geometry (in Angstrom), charge = 1, multiplicity = 1:

       Center              X                  Y                   Z               Mass
    ------------   -----------------  -----------------  -----------------  -----------------
         C            0.184432294053    -0.010904349137    -0.021718177632    12.000000000000
         C           -0.535016205947    -1.199309849137     0.339641722368    12.000000000000
         C           -1.953221005947    -1.180701649137     0.353323722368    12.000000000000
         C           -2.658416005947     0.009360950863     0.006508922368    12.000000000000
         C           -1.942637605947     1.192152350863    -0.344604677632    12.000000000000
         C           -0.524399405947     1.194480450863    -0.345727177632    12.000000000000
         C            1.694064794053    -0.009945949137     0.010693122368    12.000000000000
         N            2.398506994053    -1.070730049137    -0.524520877632    14.003074004430
         N            2.381681894053     1.073876450863     0.520860722368    14.003074004430
         H            0.011052494053    -2.116983649137     0.633320922368     1.007825032230
         H           -2.511058705947    -2.092925649137     0.641592222368     1.007825032230
         H           -3.766839205947     0.016388250863     0.013445122368     1.007825032230
         H           -2.492827905947     2.113612450863    -0.617877977632     1.007825032230
         H            0.028920494053     2.108543050863    -0.636849977632     1.007825032230
         H            3.447282294053    -1.148420949137    -0.468572077632     1.007825032230
         H            1.873414994053    -1.867011449137    -0.966553377632     1.007825032230
         H            3.432001094053     1.145454450863     0.496208622368     1.007825032230
         H            1.848397894053     1.855589250863     0.978557122368     1.007825032230

  Basis Set: STO-3G
    Blend: STO-3G
  Basis Set: (STO-3G AUX)
    Blend: DEF2-SVP-JKFIT

  -Total Gradient:
     Atom            X                  Y                   Z
    ------   -----------------  -----------------  -----------------
       1        0.000687682608    -0.000930467943    -0.005301723025
       2       -0.000207292167     0.001038850187     0.002619484193
       3        0.000186564165     0.000267662660    -0.000046297378
       4       -0.000639741376    -0.000010575280    -0.000010673346
       5        0.000173138985    -0.000233433511     0.000099814308
       6       -0.000115845988    -0.000227435594     0.000018622672
       7       -0.000006806524    -0.001325539481     0.005137481046
       8       -0.000107442478     0.001369729081    -0.002811757302
       9        0.000120879398     0.000208501037     0.000437695778
      10        0.000047239662     0.000049620018    -0.000009921433
      11       -0.000037923582     0.000050238660    -0.000021823428
      12       -0.000045906544     0.000003433936    -0.000002905815
      13       -0.000033175247    -0.000046383904     0.000012811376
      14        0.000005285958    -0.000039223777    -0.000004717529
      15       -0.000048869365    -0.000131787258    -0.000031957994
      16        0.000033000499    -0.000066283804     0.000084514429
      17       -0.000012007652    -0.000007206486    -0.000122504612
      18        0.000033014114     0.000035678484    -0.000048970180

*** Psi4 exiting successfully. Buy a developer a beer!
