                               Psi4 1.3.2 release

  ==> Input File <==

--------------------------------------------------------------------------
memory 50 GB
molecule {
1 1
C           0.1548164    -0.0339092     0.0340636
C          -0.5617996    -1.1481402    -0.5066957
C          -1.9817379    -1.1157360    -0.5214847
C          -2.6779224     0.0153179    -0.0062001
C          -1.9570211     1.1278961     0.5160827
C          -0.5369113     1.1195766     0.5235234
C           1.6800235    -0.0266618    -0.0061891
N           2.3988983    -0.8166441     0.8645246
N           2.3386761     0.8343019    -0.8567394
H          -0.0174875    -2.0226356    -0.9128716
H          -2.5439412    -1.9730911    -0.9400579
H          -3.7857322     0.0323383    -0.0164691
H          -2.5005979     2.0071169     0.9134509
H           0.0266280     1.9837386     0.9254771
H           3.4519984    -0.8771374     0.8526575
H           1.8807106    -1.4557659     1.5212823
H           3.3892002     0.9216480    -0.8917872
H           1.7763720     1.4267778    -1.5206471
}
set {
basis STO-3G
}
gradient('BLYP')
--------------------------------------------------------------------------

    Molecular point group: c1
  Charge       = 1
  Multiplicity = 1
  Basis Set: STO-3G
    Blend: STO-3G
  Basis Set: (STO-3G AUX)
    Blend: DEF2-SVP-JKFIT

    Orbital Energies [Eh]
    ---------------------

    Doubly Occupied:

       1A    -14.135070     2A    -14.134920     3A    -10.099946
       4A     -9.940544     5A     -9.914408     6A     -9.914214
       7A     -9.901696     8A     -9.901099     9A     -9.900289
      10A     -1.050570    11A     -0.972241    12A     -0.873575
      13A     -0.799825    14A     -0.771672    15A     -0.737368
      16A     -0.680530    17A     -0.661687    18A     -0.644871
      19A     -0.626213    20A     -0.599691    21A     -0.566964
      22A     -0.524930    23A     -0.516449    24A     -0.478822
      25A     -0.477104    26A     -0.470302    27A     -0.413409
      28A     -0.407006    29A     -0.401474    30A     -0.373444
      31A     -0.315195    32A     -0.309423

  @DF-RKS Final Energy:  -376.53604912496996

   => Energetics <=

    Nuclear Repulsion Energy =            405.4757738905936435
    One-Electron Energy =               -1301.9874393588436305
    Two-Electron Energy =                 574.2674253264630124
    DFT Exchange-Correlation Energy =     -54.2918089831830315
    Empirical Dispersion Energy =           0.0000000000000000
    VV10 Nonlocal Energy =                  0.0000000000000000
    Total Energy =                       -376.5360491249699635

  Dipole Moment: [D]
     X:     7.2845      Y:    -0.0361      Z:    -0.1472     Total:     7.2861

    Molecular point group: c1

    Geometry (in Angstrom), charge = 1, multiplicity = 1:

       Center              X                  Y                   Z               Mass
    ------------   -----------------  -----------------  -----------------  -----------------
         C            0.175759755517    -0.030198410104     0.030456682776    12.000000000000
         C           -0.540856244483    -1.144429410104    -0.510302617224    12.000000000000
         C           -1.960794544483    -1.112025210104    -0.525091617224    12.000000000000
         C           -2.656979044483     0.019028689896    -0.009807017224    12.000000000000
         C           -1.936077744483     1.131606889896     0.512475782776    12.000000000000
         C           -0.515967944483     1.123287389896     0.519916482776    12.000000000000
         C            1.700966855517    -0.022951010104    -0.009796017224    12.000000000000
         N            2.419841655517    -0.812933310104     0.860917682776    14.003074004430
         N            2.359619455517     0.838012689896    -0.860346317224    14.003074004430
         H            0.003455855517    -2.018924810104    -0.916478517224     1.007825032230
         H           -2.522997844483    -1.969380310104    -0.943664817224     1.007825032230
         H           -3.764788844483     0.036049089896    -0.020076017224     1.007825032230
         H           -2.479654544483     2.010827689896     0.909843982776     1.007825032230
         H            0.047571355517     1.987449389896     0.921870182776     1.007825032230
         H            3.472941755517    -0.873426610104     0.849050582776     1.007825032230
         H            1.901653955517    -1.452055110104     1.517675382776     1.007825032230
         H            3.410143555517     0.925358789896    -0.895394117224     1.007825032230
         H            1.797315355517     1.430488589896    -1.524254017224     1.007825032230

  Basis Set: STO-3G
    Blend: STO-3G
  Basis Set: (STO-3G AUX)
    Blend: DEF2-SVP-JKFIT

  -Total Gradient:
     Atom            X                  Y                   Z
    ------   -----------------  -----------------  -----------------
       1        0.000264984652    -0.001148039050     0.006204904278
       2       -0.000135790142     0.001786806831    -0.003381591193
       3       -0.000029923122    -0.000035608012    -0.000022037730
       4        0.000042471742    -0.000003974507     0.000001268782
       5       -0.000031561739     0.000038915205     0.000013185077
       6       -0.000049886673    -0.000075603828    -0.000006766001
       7        0.000008252938    -0.003595894736    -0.005567752961
       8       -0.000059958194     0.002977833299     0.002875092269
       9        0.000014262361     0.000071843336     0.000099240248
      10       -0.000002178856     0.000009462444    -0.000005461893
      11       -0.000001802118    -0.000002578921    -0.000001240493
      12        0.000004558992    -0.000000321089    -0.000000013835
      13       -0.000003582521     0.000001189119     0.000004062422
      14        0.000000875169    -0.000004860434    -0.000009727905
      15        0.000006811595     0.000073895226    -0.000146561421
      16       -0.000005402283    -0.000039845805    -0.000001201308
      17       -0.000001721123    -0.000021200531    -0.000033721098
      18        0.000001718403    -0.000019060132    -0.000019853297

*** Psi4 exiting successfully. Buy a developer a beer!
