                               Psi4 1.3.2 release

  ==> Input File <==

--------------------------------------------------------------------------
memory 50 GB
molecule {
1 1
C           0.1700272     0.0001390    -0.0008617
C          -0.5615379    -1.2398691     0.0203831
C          -1.9782087    -1.2330022     0.0211050
C          -2.6912033     0.0018507     0.0007247
C          -1.9780134     1.2365561    -0.0208686
C          -0.5613800     1.2403240    -0.0216354
C           1.6798575    -0.0003783    -0.0006132
N           2.3983471    -1.1828441     0.0198706
N           2.4013219     1.1803447    -0.0231572
H          -0.0398840    -2.2161481     0.0360397
H          -2.5295289    -2.1932636     0.0374904
H          -3.7998981     0.0020127     0.0015238
H          -2.5282734     2.1974495    -0.0370636
H          -0.0387565     2.2160511    -0.0391720
H           3.4497744    -1.1944833     0.0199117
H           1.9044672    -2.1078459     0.0364488
H           3.4527813     1.1893527    -0.0151395
H           1.9098134     2.1067342    -0.0335633
}
set {
basis STO-3G
}
gradient('BLYP')
--------------------------------------------------------------------------

    Molecular point group: c1
  Charge       = 1
  Multiplicity = 1
  Basis Set: STO-3G
    Blend: STO-3G
  Basis Set: (STO-3G AUX)
    Blend: DEF2-SVP-JKFIT

    Orbital Energies [Eh]
    ---------------------

    Doubly Occupied:

       1A    -14.119555     2A    -14.119473     3A    -10.092138
       4A     -9.956735     5A     -9.930336     6A     -9.930262
       7A     -9.917607     8A     -9.914252     9A     -9.914068
      10A     -1.040918    11A     -0.960574    12A     -0.883052
      13A     -0.806719    14A     -0.784276    15A     -0.738966
      16A     -0.678511    17A     -0.669097    18A     -0.636950
      19A     -0.631545    20A     -0.592749    21A     -0.571257
      22A     -0.540566    23A     -0.502943    24A     -0.500062
      25A     -0.489245    26A     -0.486017    27A     -0.421228
      28A     -0.417896    29A     -0.413416    30A     -0.360246
      31A     -0.326295    32A     -0.321376

  @DF-RKS Final Energy:  -376.54085930052111

   => Energetics <=

    Nuclear Repulsion Energy =            406.1045500417272933
    One-Electron Energy =               -1302.9486249586768736
    Two-Electron Energy =                 574.5944853237923553
    DFT Exchange-Correlation Energy =     -54.2912697073638810
    Empirical Dispersion Energy =           0.0000000000000000
    VV10 Nonlocal Energy =                  0.0000000000000000
    Total Energy =                       -376.5408593005211060

  Dipole Moment: [D]
     X:     6.2378      Y:    -0.0026      Z:     0.0229     Total:     6.2379

    Molecular point group: c1

    Geometry (in Angstrom), charge = 1, multiplicity = 1:

       Center              X                  Y                   Z               Mass
    ------------   -----------------  -----------------  -----------------  -----------------
         C            0.186883930470    -0.000127784193    -0.000360454991    12.000000000000
         C           -0.544681169530    -1.240135884193     0.020884345009    12.000000000000
         C           -1.961351969530    -1.233268984193     0.021606245009    12.000000000000
         C           -2.674346569530     0.001583915807     0.001225945009    12.000000000000
         C           -1.961156669530     1.236289315807    -0.020367354991    12.000000000000
         C           -0.544523269530     1.240057215807    -0.021134154991    12.000000000000
         C            1.696714230470    -0.000645084193    -0.000111954991    12.000000000000
         N            2.415203830470    -1.183110884193     0.020371845009    14.003074004430
         N            2.418178630470     1.180077915807    -0.022655954991    14.003074004430
         H           -0.023027269530    -2.216414884193     0.036540945009     1.007825032230
         H           -2.512672169530    -2.193530384193     0.037991645009     1.007825032230
         H           -3.783041369530     0.001745915807     0.002025045009     1.007825032230
         H           -2.511416669530     2.197182715807    -0.036562354991     1.007825032230
         H           -0.021899769530     2.215784315807    -0.038670754991     1.007825032230
         H            3.466631130470    -1.194750084193     0.020412945009     1.007825032230
         H            1.921323930470    -2.108112684193     0.036950045009     1.007825032230
         H            3.469638030470     1.189085915807    -0.014638254991     1.007825032230
         H            1.926670130470     2.106467415807    -0.033062054991     1.007825032230

  Basis Set: STO-3G
    Blend: STO-3G
  Basis Set: (STO-3G AUX)
    Blend: DEF2-SVP-JKFIT

  -Total Gradient:
     Atom            X                  Y                   Z
    ------   -----------------  -----------------  -----------------
       1        0.000267395215    -0.000074458009    -0.000023662844
       2        0.000020007518    -0.000040711123     0.000017932698
       3        0.000077784524     0.000244102997     0.000001303840
       4       -0.000085069421    -0.000046618420     0.000000735448
       5       -0.000081030808     0.000242343142    -0.000010286976
       6       -0.000308311461    -0.000439995735     0.000040660711
       7        0.000638344852     0.000028571423     0.000101051355
       8       -0.000296732657    -0.000335303077    -0.000043344727
       9       -0.000110360084     0.000359214147    -0.000174144172
      10        0.000027533284     0.000029883707    -0.000020149249
      11       -0.000000738872     0.000021088871    -0.000003821935
      12       -0.000009696169     0.000033404897     0.000004724180
      13       -0.000046663311    -0.000001636021     0.000000261048
      14       -0.000082044725    -0.000022259003    -0.000026606101
      15       -0.000059348511     0.000210962680     0.000000279072
      16        0.000020478380     0.000003783312     0.000013181231
      17       -0.000028861009    -0.000211890097     0.000086126412
      18        0.000041750504     0.000000441850     0.000035663746

*** Psi4 exiting successfully. Buy a developer a beer!
