                               Psi4 1.3.2 release

  ==> Input File <==

--------------------------------------------------------------------------
memory 50 GB
molecule {
1 1
C           0.1517158     0.0593756     0.0456841
C          -0.5585108    -0.8201917     0.9274011
C          -1.9768045    -0.8500795     0.8823327
C          -2.6829254    -0.0129949    -0.0301512
C          -1.9720158     0.8493188    -0.9156291
C          -0.5533829     0.8762528    -0.8977083
C           1.6677524     0.0262471     0.0272725
N           2.3371165    -0.2836087    -1.1389888
N           2.3778346     0.2052349     1.1965123
H          -0.0066241    -1.4803731     1.6244487
H          -2.5317098    -1.5322279     1.5555522
H          -3.7906268    -0.0369118    -0.0555307
H          -2.5243132     1.4974784    -1.6236303
H           0.0013622     1.5483253    -1.5810830
H           3.3880803    -0.2703451    -1.2186992
H           1.7828269    -0.4573387    -2.0161685
H           3.4262728     0.1147976     1.2524707
H           1.8628472     0.4717408     2.0741740
}
set {
basis STO-3G
}
gradient('BLYP')
--------------------------------------------------------------------------

    Molecular point group: c1
  Charge       = 1
  Multiplicity = 1
  Basis Set: STO-3G
    Blend: STO-3G
  Basis Set: (STO-3G AUX)
    Blend: DEF2-SVP-JKFIT

    Orbital Energies [Eh]
    ---------------------

    Doubly Occupied:

       1A    -14.129714     2A    -14.129444     3A    -10.095997
       4A     -9.944616     5A     -9.918910     6A     -9.918090
       7A     -9.906507     8A     -9.905156     9A     -9.904764
      10A     -1.046573    11A     -0.968372    12A     -0.876485
      13A     -0.801842    14A     -0.775400    15A     -0.736590
      16A     -0.679041    17A     -0.662752    18A     -0.642221
      19A     -0.627944    20A     -0.596595    21A     -0.568547
      22A     -0.528885    23A     -0.515047    24A     -0.481660
      25A     -0.480815    26A     -0.473131    27A     -0.415595
      28A     -0.410982    29A     -0.404969    30A     -0.368895
      31A     -0.319065    32A     -0.313295

  @DF-RKS Final Energy:  -376.53881191433743

   => Energetics <=

    Nuclear Repulsion Energy =            405.9859223269563131
    One-Electron Energy =               -1302.9468001759735216
    Two-Electron Energy =                 574.7148720722397002
    DFT Exchange-Correlation Energy =     -54.2928061375599569
    Empirical Dispersion Energy =           0.0000000000000000
    VV10 Nonlocal Energy =                  0.0000000000000000
    Total Energy =                       -376.5388119143374297

  Dipole Moment: [D]
     X:     6.9152      Y:    -0.0423      Z:    -0.0186     Total:     6.9153

    Molecular point group: c1

    Geometry (in Angstrom), charge = 1, multiplicity = 1:

       Center              X                  Y                   Z               Mass
    ------------   -----------------  -----------------  -----------------  -----------------
         C            0.180173379117     0.056966576689     0.035049907558    12.000000000000
         C           -0.530053220883    -0.822600723311     0.916766907558    12.000000000000
         C           -1.948346920883    -0.852488523311     0.871698507558    12.000000000000
         C           -2.654467820883    -0.015403923311    -0.040785392442    12.000000000000
         C           -1.943558220883     0.846909776689    -0.926263292442    12.000000000000
         C           -0.524925320883     0.873843776689    -0.908342492442    12.000000000000
         C            1.696209979117     0.023838076689     0.016638307558    12.000000000000
         N            2.365574079117    -0.286017723311    -1.149622992442    14.003074004430
         N            2.406292179117     0.202825876689     1.185878107558    14.003074004430
         H            0.021833479117    -1.482782123311     1.613814507558     1.007825032230
         H           -2.503252220883    -1.534636923311     1.544918007558     1.007825032230
         H           -3.762169220883    -0.039320823311    -0.066164892442     1.007825032230
         H           -2.495855620883     1.495069376689    -1.634264492442     1.007825032230
         H            0.029819779117     1.545916276689    -1.591717192442     1.007825032230
         H            3.416537879117    -0.272754123311    -1.229333392442     1.007825032230
         H            1.811284479117    -0.459747723311    -2.026802692442     1.007825032230
         H            3.454730379117     0.112388576689     1.241836507558     1.007825032230
         H            1.891304779117     0.469331776689     2.063539807558     1.007825032230

  Basis Set: STO-3G
    Blend: STO-3G
  Basis Set: (STO-3G AUX)
    Blend: DEF2-SVP-JKFIT

  -Total Gradient:
     Atom            X                  Y                   Z
    ------   -----------------  -----------------  -----------------
       1        0.000101998438     0.002513228833     0.005225836262
       2       -0.000093491993    -0.003150259969    -0.003203980384
       3        0.000014649517     0.000021200571    -0.000021037947
       4       -0.000029893188    -0.000002653300     0.000002673863
       5       -0.000002894745     0.000001830027    -0.000002646408
       6        0.000002773572    -0.000005945475     0.000018043843
       7        0.000094314902     0.005148396582    -0.003167443959
       8       -0.000087182024    -0.004520957678     0.001142019925
       9        0.000003741973     0.000025102026    -0.000004459779
      10        0.000003743061     0.000004003607    -0.000000399287
      11        0.000000242245     0.000001820578    -0.000001772963
      12       -0.000002475160     0.000000779173    -0.000002305096
      13       -0.000004025655    -0.000002661049     0.000001663151
      14       -0.000002001946    -0.000002208319     0.000001943797
      15       -0.000002073193    -0.000013502094     0.000000677794
      16        0.000003811198    -0.000008215350     0.000008061316
      17       -0.000002365864    -0.000000069491     0.000017516243
      18        0.000001443031    -0.000001217678     0.000001015023

*** Psi4 exiting successfully. Buy a developer a beer!
