                               Psi4 1.3.2 release

  ==> Input File <==

--------------------------------------------------------------------------
memory 50 GB
molecule {
1 1
C           0.1473728     0.0358383     0.0337918
C          -0.5731037    -0.7569570     0.9892830
C          -1.9909184    -0.7745033     0.9533264
C          -2.6920561    -0.0048844    -0.0213426
C          -1.9750646     0.7777238    -0.9742812
C          -0.5570287     0.7916811    -0.9625569
C           1.6572848     0.0114803     0.0299904
N           2.3470144    -0.1007331    -1.1611575
N           2.3576836     0.0361617     1.2202140
H          -0.0281720    -1.3738149     1.7301730
H          -2.5507529    -1.3939674     1.6808878
H          -3.8002567    -0.0178981    -0.0408079
H          -2.5238263     1.3772557    -1.7265252
H          -0.0013746     1.4136966    -1.6912150
H           3.3980971    -0.0691673    -1.2187559
H           1.8107260    -0.1928018    -2.0605963
H           3.4067202    -0.0429751     1.2667929
H           1.8393715     0.1931754     2.1211777
}
set {
basis STO-3G
}
gradient('BLYP')
--------------------------------------------------------------------------

    Molecular point group: c1
  Charge       = 1
  Multiplicity = 1
  Basis Set: STO-3G
    Blend: STO-3G
  Basis Set: (STO-3G AUX)
    Blend: DEF2-SVP-JKFIT

    Orbital Energies [Eh]
    ---------------------

    Doubly Occupied:

       1A    -14.125589     2A    -14.125294     3A    -10.093443
       4A     -9.948118     5A     -9.922228     6A     -9.921820
       7A     -9.910523     8A     -9.908405     9A     -9.908143
      10A     -1.043729    11A     -0.965434    12A     -0.878768
      13A     -0.803526    14A     -0.778429    15A     -0.736485
      16A     -0.678123    17A     -0.664918    18A     -0.638624
      19A     -0.629844    20A     -0.594864    21A     -0.569572
      22A     -0.532507    23A     -0.513194    24A     -0.484625
      25A     -0.483961    26A     -0.476554    27A     -0.416768
      28A     -0.414395    29A     -0.407870    30A     -0.365503
      31A     -0.321895    32A     -0.316355

  @DF-RKS Final Energy:  -376.54115732131345

   => Energetics <=

    Nuclear Repulsion Energy =            406.3130578521350458
    One-Electron Energy =               -1303.5420494873835651
    Two-Electron Energy =                 574.9815535411378278
    DFT Exchange-Correlation Energy =     -54.2937192272026437
    Empirical Dispersion Energy =           0.0000000000000000
    VV10 Nonlocal Energy =                  0.0000000000000000
    Total Energy =                       -376.5411573213133920

  Dipole Moment: [D]
     X:     6.6403      Y:    -0.0232      Z:     0.0155     Total:     6.6403

    Molecular point group: c1

    Geometry (in Angstrom), charge = 1, multiplicity = 1:

       Center              X                  Y                   Z               Mass
    ------------   -----------------  -----------------  -----------------  -----------------
         C            0.183377017443     0.036226341494     0.021674569120    12.000000000000
         C           -0.537099482557    -0.756568958506     0.977165769120    12.000000000000
         C           -1.954914182557    -0.774115258506     0.941209169120    12.000000000000
         C           -2.656051882557    -0.004496358506    -0.033459830880    12.000000000000
         C           -1.939060382557     0.778111841494    -0.986398430880    12.000000000000
         C           -0.521024482557     0.792069141494    -0.974674130880    12.000000000000
         C            1.693289017443     0.011868341494     0.017873169120    12.000000000000
         N            2.383018617443    -0.100345058506    -1.173274730880    14.003074004430
         N            2.393687817443     0.036549741494     1.208096769120    14.003074004430
         H            0.007832217443    -1.373426858506     1.718055769120     1.007825032230
         H           -2.514748682557    -1.393579358506     1.668770569120     1.007825032230
         H           -3.764252482557    -0.017510058506    -0.052925130880     1.007825032230
         H           -2.487822082557     1.377643741494    -1.738642430880     1.007825032230
         H            0.034629617443     1.414084641494    -1.703332230880     1.007825032230
         H            3.434101317443    -0.068779258506    -1.230873130880     1.007825032230
         H            1.846730217443    -0.192413758506    -2.072713530880     1.007825032230
         H            3.442724417443    -0.042587058506     1.254675669120     1.007825032230
         H            1.875375717443     0.193563441494     2.109060469120     1.007825032230

  Basis Set: STO-3G
    Blend: STO-3G
  Basis Set: (STO-3G AUX)
    Blend: DEF2-SVP-JKFIT

  -Total Gradient:
     Atom            X                  Y                   Z
    ------   -----------------  -----------------  -----------------
       1       -0.000020920166     0.001767152853     0.002719875468
       2       -0.000063475066    -0.002097411721    -0.001904088699
       3       -0.000021384238    -0.000036614761     0.000049078884
       4       -0.000086641264     0.000011983845    -0.000016104644
       5        0.000065805521    -0.000104084519     0.000129410853
       6        0.000107515798     0.000107745066    -0.000059352799
       7        0.000184708761     0.003347850562    -0.001240061884
       8       -0.000116801519    -0.002891716529     0.000277025663
       9       -0.000037672242    -0.000070429896     0.000108652813
      10       -0.000009428960    -0.000003911373    -0.000014752157
      11       -0.000011375891     0.000001643612    -0.000002634107
      12       -0.000005409365    -0.000011593703     0.000012549416
      13        0.000010308537    -0.000002978814     0.000011138168
      14        0.000017804570    -0.000023384136    -0.000016197938
      15       -0.000014240582    -0.000034223250    -0.000068742002
      16        0.000011044764    -0.000021105218     0.000008516305
      17        0.000006303605     0.000036322100    -0.000010706794
      18        0.000009686636     0.000020333266    -0.000006715765

*** Psi4 exiting successfully. Buy a developer a beer!
