                               Psi4 1.3.2 release

  ==> Input File <==

--------------------------------------------------------------------------
memory 50 GB
molecule {
1 1
C           0.1600669    -0.0284197     0.0403367
C          -0.5586029    -1.1919455    -0.3890580
C          -1.9774962    -1.1630866    -0.4089582
C          -2.6759178     0.0129198    -0.0075575
C          -1.9567152     1.1738824     0.4023084
C          -0.5377339     1.1686731     0.4082211
C           1.6757798    -0.0223013    -0.0107261
N           2.3982499    -0.9507126     0.7104676
N           2.3373857     0.9695921    -0.7047619
H          -0.0131633    -2.0990616    -0.7147421
H          -2.5391248    -2.0565679    -0.7446104
H          -3.7840109     0.0270789    -0.0197624
H          -2.5028879     2.0859369     0.7126685
H           0.0235495     2.0672618     0.7303694
H           3.4487747    -1.0232078     0.6639639
H           1.8833732    -1.6776022     1.2703104
H           3.3869410     1.0644767    -0.7112284
H           1.7799766     1.6581846    -1.2718969
}
set {
basis STO-3G
}
gradient('BLYP')
--------------------------------------------------------------------------

    Molecular point group: c1
  Charge       = 1
  Multiplicity = 1
  Basis Set: STO-3G
    Blend: STO-3G
  Basis Set: (STO-3G AUX)
    Blend: DEF2-SVP-JKFIT

    Orbital Energies [Eh]
    ---------------------

    Doubly Occupied:

       1A    -14.129724     2A    -14.129572     3A    -10.096018
       4A     -9.944510     5A     -9.918653     6A     -9.918192
       7A     -9.906445     8A     -9.905087     9A     -9.904692
      10A     -1.046618    11A     -0.968399    12A     -0.876425
      13A     -0.801798    14A     -0.775328    15A     -0.736603
      16A     -0.679082    17A     -0.662674    18A     -0.642295
      19A     -0.627914    20A     -0.596635    21A     -0.568522
      22A     -0.528805    23A     -0.515087    24A     -0.481618
      25A     -0.480716    26A     -0.473050    27A     -0.415554
      28A     -0.410942    29A     -0.404890    30A     -0.368930
      31A     -0.319019    32A     -0.313222

  @DF-RKS Final Energy:  -376.53878118414320

   => Energetics <=

    Nuclear Repulsion Energy =            405.9402937169233496
    One-Electron Energy =               -1302.8572204857027828
    Two-Electron Energy =                 574.6709833597291208
    DFT Exchange-Correlation Energy =     -54.2928377750929414
    Empirical Dispersion Energy =           0.0000000000000000
    VV10 Nonlocal Energy =                  0.0000000000000000
    Total Energy =                       -376.5387811841432040

  Dipole Moment: [D]
     X:     6.9170      Y:    -0.0337      Z:    -0.1760     Total:     6.9193

    Molecular point group: c1

    Geometry (in Angstrom), charge = 1, multiplicity = 1:

       Center              X                  Y                   Z               Mass
    ------------   -----------------  -----------------  -----------------  -----------------
         C            0.180197754299    -0.026007182887     0.036957833520    12.000000000000
         C           -0.538472045701    -1.189532982887    -0.392436866480    12.000000000000
         C           -1.957365345701    -1.160674082887    -0.412337066480    12.000000000000
         C           -2.655786945701     0.015332317113    -0.010936366480    12.000000000000
         C           -1.936584345701     1.176294917113     0.398929533520    12.000000000000
         C           -0.517603045701     1.171085617113     0.404842233520    12.000000000000
         C            1.695910654299    -0.019888782887    -0.014104966480    12.000000000000
         N            2.418380754299    -0.948300082887     0.707088733520    14.003074004430
         N            2.357516554299     0.972004617113    -0.708140766480    14.003074004430
         H            0.006967554299    -2.096649082887    -0.718120966480     1.007825032230
         H           -2.518993945701    -2.054155382887    -0.747989266480     1.007825032230
         H           -3.763880045701     0.029491417113    -0.023141266480     1.007825032230
         H           -2.482757045701     2.088349417113     0.709289633520     1.007825032230
         H            0.043680354299     2.069674317113     0.726990533520     1.007825032230
         H            3.468905554299    -1.020795282887     0.660585033520     1.007825032230
         H            1.903504054299    -1.675189682887     1.266931533520     1.007825032230
         H            3.407071854299     1.066889217113    -0.714607266480     1.007825032230
         H            1.800107454299     1.660597117113    -1.275275766480     1.007825032230

  Basis Set: STO-3G
    Blend: STO-3G
  Basis Set: (STO-3G AUX)
    Blend: DEF2-SVP-JKFIT

  -Total Gradient:
     Atom            X                  Y                   Z
    ------   -----------------  -----------------  -----------------
       1        0.000288807795    -0.001081805674     0.007875160280
       2       -0.000124009300     0.001581696456    -0.004251418055
       3        0.000062915607     0.000098940048     0.000040924845
       4       -0.000080088667    -0.000000929954    -0.000004062835
       5       -0.000001036294     0.000015717805     0.000010689000
       6       -0.000028741953    -0.000039599972    -0.000038140719
       7       -0.000218931616    -0.003452307183    -0.007250839040
       8        0.000096015785     0.002862918583     0.003629201391
       9        0.000013269061    -0.000118088632    -0.000128055091
      10        0.000014653879    -0.000000881359     0.000004581139
      11        0.000002803718     0.000008611194     0.000002713350
      12       -0.000006654812     0.000009455567     0.000001501493
      13       -0.000009518581    -0.000003244105    -0.000003805110
      14       -0.000006152290    -0.000006048190     0.000007206871
      15        0.000000159286     0.000047606322     0.000003593797
      16       -0.000000018027     0.000013260516     0.000018998165
      17       -0.000003294815     0.000033553893     0.000046154102
      18       -0.000004397934     0.000022936540     0.000037672564

*** Psi4 exiting successfully. Buy a developer a beer!
