                               Psi4 1.3.2 release

  ==> Input File <==

--------------------------------------------------------------------------
memory 50 GB
molecule {
1 1
C           0.1565362    -0.0028714    -0.0078610
C          -0.5827644    -0.5334942    -1.1236347
C          -1.9993370    -0.5277500    -1.1094574
C          -2.7032397     0.0040032     0.0110669
C          -1.9823772     0.5324161     1.1223260
C          -0.5657286     0.5311432     1.1174901
C           1.6660923    -0.0068084    -0.0177208
N           2.3945680     0.4985438     1.0448893
N           2.3778705    -0.5144056    -1.0904683
H          -0.0669585    -0.9532476    -2.0086807
H          -2.5570069    -0.9385827    -1.9735043
H          -3.8118967     0.0066118     0.0182766
H          -2.5266310     0.9459164     1.9936302
H          -0.0363753     0.9486031     1.9955679
H           3.4461182     0.5002647     1.0483618
H           1.9080534     0.8974061     1.8840501
H           3.4292355    -0.5262426    -1.1054920
H           1.8782561    -0.9150679    -1.9210375
}
set {
basis STO-3G
}
gradient('BLYP')
--------------------------------------------------------------------------

    Molecular point group: c1
  Charge       = 1
  Multiplicity = 1
  Basis Set: STO-3G
    Blend: STO-3G
  Basis Set: (STO-3G AUX)
    Blend: DEF2-SVP-JKFIT

    Orbital Energies [Eh]
    ---------------------

    Doubly Occupied:

       1A    -14.119473     2A    -14.119396     3A    -10.092098
       4A     -9.956766     5A     -9.930381     6A     -9.930329
       7A     -9.917622     8A     -9.914310     9A     -9.914129
      10A     -1.040837    11A     -0.960502    12A     -0.883107
      13A     -0.806740    14A     -0.784368    15A     -0.738938
      16A     -0.678413    17A     -0.669167    18A     -0.636949
      19A     -0.631560    20A     -0.592588    21A     -0.571273
      22A     -0.540610    23A     -0.503004    24A     -0.500034
      25A     -0.489228    26A     -0.486137    27A     -0.421157
      28A     -0.417921    29A     -0.413572    30A     -0.360177
      31A     -0.326297    32A     -0.321450

  @DF-RKS Final Energy:  -376.54086196770697

   => Energetics <=

    Nuclear Repulsion Energy =            406.1269378733069857
    One-Electron Energy =               -1302.9929911380377234
    Two-Electron Energy =                 574.6164744540135416
    DFT Exchange-Correlation Energy =     -54.2912831569897989
    Empirical Dispersion Energy =           0.0000000000000000
    VV10 Nonlocal Energy =                  0.0000000000000000
    Total Energy =                       -376.5408619677069169

  Dipole Moment: [D]
     X:     6.2341      Y:    -0.0306      Z:    -0.0336     Total:     6.2342

    Molecular point group: c1

    Geometry (in Angstrom), charge = 1, multiplicity = 1:

       Center              X                  Y                   Z               Mass
    ------------   -----------------  -----------------  -----------------  -----------------
         C            0.186477624515    -0.000417916617    -0.001244497990    12.000000000000
         C           -0.552822975485    -0.531040716617    -1.117018197990    12.000000000000
         C           -1.969395575485    -0.525296516617    -1.102840897990    12.000000000000
         C           -2.673298275485     0.006456683383     0.017683402010    12.000000000000
         C           -1.952435775485     0.534869583383     1.128942502010    12.000000000000
         C           -0.535787175485     0.533596683383     1.124106602010    12.000000000000
         C            1.696033724515    -0.004354916617    -0.011104297990    12.000000000000
         N            2.424509424515     0.500997283383     1.051505802010    14.003074004430
         N            2.407811924515    -0.511952116617    -1.083851797990    14.003074004430
         H           -0.037017075485    -0.950794116617    -2.002064197990     1.007825032230
         H           -2.527065475485    -0.936129216617    -1.966887797990     1.007825032230
         H           -3.781955275485     0.009065283383     0.024893102010     1.007825032230
         H           -2.496689575485     0.948369883383     2.000246702010     1.007825032230
         H           -0.006433875485     0.951056583383     2.002184402010     1.007825032230
         H            3.476059624515     0.502718183383     1.054978302010     1.007825032230
         H            1.937994824515     0.899859583383     1.890666602010     1.007825032230
         H            3.459176924515    -0.523789116617    -1.098875497990     1.007825032230
         H            1.908197524515    -0.912614416617    -1.914420997990     1.007825032230

  Basis Set: STO-3G
    Blend: STO-3G
  Basis Set: (STO-3G AUX)
    Blend: DEF2-SVP-JKFIT

  -Total Gradient:
     Atom            X                  Y                   Z
    ------   -----------------  -----------------  -----------------
       1        0.000106245953     0.000013093050    -0.000023643155
       2        0.000010632157     0.000035745336     0.000122637334
       3       -0.000077874778    -0.000043662151    -0.000097503411
       4        0.000184823378     0.000000033433     0.000000195453
       5       -0.000138978364     0.000096873079     0.000206780375
       6       -0.000073051676    -0.000090172333    -0.000192652240
       7        0.000193024036    -0.000077679643    -0.000031849646
       8       -0.000096781988     0.000103791665     0.000162284015
       9       -0.000107570604     0.000044972432    -0.000196979415
      10        0.000017737924     0.000006572162     0.000001961797
      11        0.000001658794    -0.000007245848    -0.000012398304
      12        0.000016079267     0.000003919330     0.000008239502
      13       -0.000012350361     0.000007664656     0.000015782229
      14       -0.000022843643    -0.000005826477    -0.000012795794
      15        0.000003917132    -0.000052451189    -0.000077434766
      16        0.000003840337     0.000013495136     0.000041677163
      17       -0.000011633327     0.000006163949     0.000109411501
      18       -0.000012320569    -0.000055217136    -0.000023547828

*** Psi4 exiting successfully. Buy a developer a beer!
