                               Psi4 1.3.2 release

  ==> Input File <==

--------------------------------------------------------------------------
memory 50 GB
molecule {
1 1
C           0.1542836    -0.0083404    -0.0051384
C          -0.5715930    -0.3153809    -1.2069714
C          -1.9889911    -0.3011316    -1.1940065
C          -2.6917329     0.0061699     0.0087837
C          -1.9738277     0.3072997     1.2041983
C          -0.5563190     0.3083669     1.2033015
C           1.6611861    -0.0098956    -0.0145158
N           2.3723966     0.8200910     0.8319517
N           2.3580547    -0.8368015    -0.8758631
H          -0.0334891    -0.5227080    -2.1523530
H          -2.5487267    -0.5233124    -2.1234122
H          -3.8003019     0.0114383     0.0144374
H          -2.5221576     0.5357676     2.1388580
H          -0.0069087     0.5117743     2.1430310
H           3.4239929     0.8171298     0.8745505
H           1.8636149     1.5347639     1.4097982
H           3.4088184    -0.8364827    -0.9357375
H           1.8392367    -1.5525501    -1.4433876
}
set {
basis STO-3G
}
gradient('BLYP')
--------------------------------------------------------------------------

    Molecular point group: c1
  Charge       = 1
  Multiplicity = 1
  Basis Set: STO-3G
    Blend: STO-3G
  Basis Set: (STO-3G AUX)
    Blend: DEF2-SVP-JKFIT

    Orbital Energies [Eh]
    ---------------------

    Doubly Occupied:

       1A    -14.122508     2A    -14.122385     3A    -10.092026
       4A     -9.951232     5A     -9.925064     6A     -9.925004
       7A     -9.913692     8A     -9.910923     9A     -9.910713
      10A     -1.042037    11A     -0.963159    12A     -0.880534
      13A     -0.804913    14A     -0.780799    15A     -0.736879
      16A     -0.677692    17A     -0.666776    18A     -0.635200
      19A     -0.632020    20A     -0.593783    21A     -0.570238
      22A     -0.535698    23A     -0.510571    24A     -0.488662
      25A     -0.485935    26A     -0.480072    27A     -0.417333
      28A     -0.417219    29A     -0.410059    30A     -0.363161
      31A     -0.323893    32A     -0.318629

  @DF-RKS Final Energy:  -376.54215738657058

   => Energetics <=

    Nuclear Repulsion Energy =            406.4086079125191304
    One-Electron Energy =               -1303.6766112334216814
    Two-Electron Energy =                 575.0195790635747244
    DFT Exchange-Correlation Energy =     -54.2937331292426464
    Empirical Dispersion Energy =           0.0000000000000000
    VV10 Nonlocal Energy =                  0.0000000000000000
    Total Energy =                       -376.5421573865705227

  Dipole Moment: [D]
     X:     6.4501      Y:    -0.0146      Z:    -0.0387     Total:     6.4502

    Molecular point group: c1

    Geometry (in Angstrom), charge = 1, multiplicity = 1:

       Center              X                  Y                   Z               Mass
    ------------   -----------------  -----------------  -----------------  -----------------
         C            0.185059834415    -0.004926767943     0.000988910180    12.000000000000
         C           -0.540816765585    -0.311967267943    -1.200844089820    12.000000000000
         C           -1.958214865585    -0.297717967943    -1.187879189820    12.000000000000
         C           -2.660956665585     0.009583532057     0.014911010180    12.000000000000
         C           -1.943051465585     0.310713332057     1.210325610180    12.000000000000
         C           -0.525542765585     0.311780532057     1.209428810180    12.000000000000
         C            1.691962334415    -0.006481967943    -0.008388489820    12.000000000000
         N            2.403172834415     0.823504632057     0.838079010180    14.003074004430
         N            2.388830934415    -0.833387867943    -0.869735789820    14.003074004430
         H           -0.002712865585    -0.519294367943    -2.146225689820     1.007825032230
         H           -2.517950465585    -0.519898767943    -2.117284889820     1.007825032230
         H           -3.769525665585     0.014851932057     0.020564710180     1.007825032230
         H           -2.491381365585     0.539181232057     2.144985310180     1.007825032230
         H            0.023867534415     0.515187932057     2.149158310180     1.007825032230
         H            3.454769134415     0.820543432057     0.880677810180     1.007825032230
         H            1.894391134415     1.538177532057     1.415925510180     1.007825032230
         H            3.439594634415    -0.833069067943    -0.929610189820     1.007825032230
         H            1.870012934415    -1.549136467943    -1.437260289820     1.007825032230

  Basis Set: STO-3G
    Blend: STO-3G
  Basis Set: (STO-3G AUX)
    Blend: DEF2-SVP-JKFIT

  -Total Gradient:
     Atom            X                  Y                   Z
    ------   -----------------  -----------------  -----------------
       1        0.000001628546    -0.000427413259    -0.000102163096
       2       -0.000039453862     0.000342242381    -0.000050066299
       3        0.000072828415     0.000024394757     0.000080705247
       4       -0.000250607680    -0.000002378236     0.000008491848
       5        0.000127351848    -0.000035869941    -0.000203590790
       6        0.000022204094    -0.000012681668     0.000102065533
       7       -0.000099262963    -0.000188032818     0.000416621324
       8        0.000097018407     0.000158590553    -0.000190193234
       9        0.000072539559     0.000236289825     0.000077703057
      10        0.000017868477    -0.000004250796     0.000013191714
      11       -0.000013184548     0.000004975193     0.000018813407
      12       -0.000018541099    -0.000004775586    -0.000006597993
      13       -0.000000714208    -0.000005048479    -0.000022625096
      14        0.000009680895     0.000002058010    -0.000004169626
      15        0.000019656855    -0.000004638494    -0.000069165372
      16       -0.000002143393     0.000038436363    -0.000059381906
      17        0.000009283628    -0.000105547790    -0.000051513348
      18       -0.000010096846    -0.000016589558     0.000042285514

*** Psi4 exiting successfully. Buy a developer a beer!
