                               Psi4 1.3.2 release

  ==> Input File <==

--------------------------------------------------------------------------
memory 50 GB
molecule {
1 1
C           0.1529192    -0.0267916     0.0057192
C          -0.5793988    -0.6670462    -1.0546347
C          -1.9961400    -0.6501991    -1.0473146
C          -2.6996790     0.0098720     0.0034696
C          -1.9808709     0.6554343     1.0528143
C          -0.5639992     0.6411299     1.0595319
C           1.6601721    -0.0190020    -0.0092549
N           2.3844196     0.3074659     1.1239445
N           2.3621943    -0.3031386    -1.1669810
H          -0.0529168    -1.2129055    -1.8613795
H          -2.5547893    -1.1559006    -1.8588497
H          -3.8082773     0.0226929     0.0035444
H          -2.5275293     1.1776911     1.8620321
H          -0.0249757     1.1781858     1.8637322
H           3.4359570     0.3389401     1.1268733
H           1.8962242     0.4182593     2.0465689
H           3.4136254    -0.3205623    -1.1941125
H           1.8513276    -0.4471963    -2.0724475
}
set {
basis STO-3G
}
gradient('BLYP')
--------------------------------------------------------------------------

    Molecular point group: c1
  Charge       = 1
  Multiplicity = 1
  Basis Set: STO-3G
    Blend: STO-3G
  Basis Set: (STO-3G AUX)
    Blend: DEF2-SVP-JKFIT

    Orbital Energies [Eh]
    ---------------------

    Doubly Occupied:

       1A    -14.120471     2A    -14.120284     3A    -10.091596
       4A     -9.954403     5A     -9.928104     6A     -9.928041
       7A     -9.916233     8A     -9.913057     9A     -9.912863
      10A     -1.041113    11A     -0.961459    12A     -0.882087
      13A     -0.806049    14A     -0.782978    15A     -0.737824
      16A     -0.677800    17A     -0.668264    18A     -0.634695
      19A     -0.632588    20A     -0.593016    21A     -0.570798
      22A     -0.538633    23A     -0.507246    24A     -0.493910
      25A     -0.487810    26A     -0.483595    27A     -0.419656
      28A     -0.417655    29A     -0.412121    30A     -0.361367
      31A     -0.325405    32A     -0.320463

  @DF-RKS Final Energy:  -376.54167603727660

   => Energetics <=

    Nuclear Repulsion Energy =            406.3223370075875209
    One-Electron Energy =               -1303.4383814650191198
    Two-Electron Energy =                 574.8669684250000955
    DFT Exchange-Correlation Energy =     -54.2926000048450845
    Empirical Dispersion Energy =           0.0000000000000000
    VV10 Nonlocal Energy =                  0.0000000000000000
    Total Energy =                       -376.5416760372766021

  Dipole Moment: [D]
     X:     6.3084      Y:    -0.0266      Z:    -0.0425     Total:     6.3086

    Molecular point group: c1

    Geometry (in Angstrom), charge = 1, multiplicity = 1:

       Center              X                  Y                   Z               Mass
    ------------   -----------------  -----------------  -----------------  -----------------
         C            0.185752830600    -0.021675510192     0.010372202488    12.000000000000
         C           -0.546565169400    -0.661930110192    -1.049981697512    12.000000000000
         C           -1.963306369400    -0.645083010192    -1.042661597512    12.000000000000
         C           -2.666845369400     0.014988089808     0.008122602488    12.000000000000
         C           -1.948037269400     0.660550389808     1.057467302488    12.000000000000
         C           -0.531165569400     0.646245989808     1.064184902488    12.000000000000
         C            1.693005730600    -0.013885910192    -0.004601897512    12.000000000000
         N            2.417253230600     0.312581989808     1.128597502488    14.003074004430
         N            2.395027930600    -0.298022510192    -1.162327997512    14.003074004430
         H           -0.020083169400    -1.207789410192    -1.856726497512     1.007825032230
         H           -2.521955669400    -1.150784510192    -1.854196697512     1.007825032230
         H           -3.775443669400     0.027808989808     0.008197402488     1.007825032230
         H           -2.494695669400     1.182807189808     1.866685102488     1.007825032230
         H            0.007857930600     1.183301889808     1.868385202488     1.007825032230
         H            3.468790630600     0.344056189808     1.131526302488     1.007825032230
         H            1.929057830600     0.423375389808     2.051221902488     1.007825032230
         H            3.446459030600    -0.315446210192    -1.189459497512     1.007825032230
         H            1.884161230600    -0.442080210192    -2.067794497512     1.007825032230

  Basis Set: STO-3G
    Blend: STO-3G
  Basis Set: (STO-3G AUX)
    Blend: DEF2-SVP-JKFIT

  -Total Gradient:
     Atom            X                  Y                   Z
    ------   -----------------  -----------------  -----------------
       1       -0.000166315640    -0.001350151611     0.000924221571
       2        0.000026789541     0.001385208792    -0.000921102476
       3       -0.000008121140    -0.000005005259    -0.000007375573
       4        0.000036496556    -0.000006074086    -0.000000508499
       5        0.000027493705    -0.000022695379    -0.000035196322
       6        0.000071826440     0.000062588994     0.000112792589
       7       -0.000044621137    -0.001715490506     0.000453897597
       8        0.000191159519     0.001525702756    -0.000610137265
       9       -0.000134729060     0.000091277260    -0.000079624716
      10        0.000003721525    -0.000003516761    -0.000015269122
      11        0.000006414433    -0.000003178432    -0.000002370346
      12        0.000002056487    -0.000001849960    -0.000003349692
      13        0.000013511744     0.000005578369     0.000000562979
      14       -0.000022038798     0.000015436605     0.000013439213
      15        0.000002065463     0.000061750809     0.000095477867
      16        0.000005040315     0.000031695387    -0.000044363622
      17       -0.000000472743    -0.000013054227     0.000119906868
      18       -0.000017757902    -0.000056775507    -0.000000142112

*** Psi4 exiting successfully. Buy a developer a beer!
