                               Psi4 1.3.2 release

  ==> Input File <==

--------------------------------------------------------------------------
memory 50 GB
molecule {
1 1
C           0.1591958    -0.0319490    -0.0418161
C          -0.5605356    -1.1783385     0.4297433
C          -1.9793825    -1.1471775     0.4510298
C          -2.6760156     0.0152758     0.0090418
C          -1.9565608     1.1603481    -0.4430310
C          -0.5376083     1.1522951    -0.4508327
C           1.6749999    -0.0262189     0.0071130
N           2.3929894    -0.9819002    -0.6822154
N           2.3395211     0.9916040     0.6599869
H          -0.0158262    -2.0740846     0.7865781
H          -2.5418544    -2.0272846     0.8190699
H          -3.7840539     0.0315047     0.0224455
H          -2.5020403     2.0615810    -0.7846953
H           0.0247085     2.0379890    -0.8052157
H           3.4434685    -1.0553987    -0.6366106
H           1.8746483    -1.7263811    -1.2150989
H           3.3897741     1.0782534     0.6690079
H           1.7854851     1.6951572     1.2118968
}
set {
basis STO-3G
}
gradient('BLYP')
--------------------------------------------------------------------------

    Molecular point group: c1
  Charge       = 1
  Multiplicity = 1
  Basis Set: STO-3G
    Blend: STO-3G
  Basis Set: (STO-3G AUX)
    Blend: DEF2-SVP-JKFIT

    Orbital Energies [Eh]
    ---------------------

    Doubly Occupied:

       1A    -14.129776     2A    -14.129611     3A    -10.096011
       4A     -9.944433     5A     -9.918611     6A     -9.918114
       7A     -9.906393     8A     -9.905066     9A     -9.904666
      10A     -1.046578    11A     -0.968467    12A     -0.876383
      13A     -0.801763    14A     -0.775304    15A     -0.736573
      16A     -0.679035    17A     -0.662715    18A     -0.642209
      19A     -0.627861    20A     -0.596788    21A     -0.568442
      22A     -0.528729    23A     -0.515006    24A     -0.481572
      25A     -0.480731    26A     -0.473027    27A     -0.415495
      28A     -0.410802    29A     -0.404944    30A     -0.369001
      31A     -0.318961    32A     -0.313197

  @DF-RKS Final Energy:  -376.53877964392029

   => Energetics <=

    Nuclear Repulsion Energy =            405.9458399926319885
    One-Electron Energy =               -1302.8698624951075544
    Two-Electron Energy =                 574.6780082378016914
    DFT Exchange-Correlation Energy =     -54.2927653792465037
    Empirical Dispersion Energy =           0.0000000000000000
    VV10 Nonlocal Energy =                  0.0000000000000000
    Total Energy =                       -376.5387796439202930

  Dipole Moment: [D]
     X:     6.9196      Y:    -0.0555      Z:     0.1900     Total:     6.9224

    Molecular point group: c1

    Geometry (in Angstrom), charge = 1, multiplicity = 1:

       Center              X                  Y                   Z               Mass
    ------------   -----------------  -----------------  -----------------  -----------------
         C            0.180288065372    -0.027721984820    -0.035965379431    12.000000000000
         C           -0.539443334628    -1.174111484820     0.435594020569    12.000000000000
         C           -1.958290234628    -1.142950484820     0.456880520569    12.000000000000
         C           -2.654923334628     0.019502815180     0.014892520569    12.000000000000
         C           -1.935468534628     1.164575115180    -0.437180279431    12.000000000000
         C           -0.516516034628     1.156522115180    -0.444981979431    12.000000000000
         C            1.696092165372    -0.021991884820     0.012963720569    12.000000000000
         N            2.414081665372    -0.977673184820    -0.676364679431    14.003074004430
         N            2.360613365372     0.995831015180     0.665837620569    14.003074004430
         H            0.005266065372    -2.069857584820     0.792428820569     1.007825032230
         H           -2.520762134628    -2.023057584820     0.824920620569     1.007825032230
         H           -3.762961634628     0.035731715180     0.028296220569     1.007825032230
         H           -2.480948034628     2.065808015180    -0.778844579431     1.007825032230
         H            0.045800765372     2.042216015180    -0.799364979431     1.007825032230
         H            3.464560765372    -1.051171684820    -0.630759879431     1.007825032230
         H            1.895740565372    -1.722154084820    -1.209248179431     1.007825032230
         H            3.410866365372     1.082480415180     0.674858620569     1.007825032230
         H            1.806577365372     1.699384215180     1.217747520569     1.007825032230

  Basis Set: STO-3G
    Blend: STO-3G
  Basis Set: (STO-3G AUX)
    Blend: DEF2-SVP-JKFIT

  -Total Gradient:
     Atom            X                  Y                   Z
    ------   -----------------  -----------------  -----------------
       1        0.000391146643    -0.001465591079    -0.007969475209
       2       -0.000141817247     0.001909985718     0.004119855943
       3       -0.000138353348    -0.000166633502     0.000077502084
       4        0.000306100602    -0.000011758728    -0.000000334685
       5       -0.000180571771     0.000300386231    -0.000096017068
       6       -0.000099777914    -0.000222243107     0.000081833925
       7        0.000065426912    -0.003281835527     0.007633155076
       8       -0.000133254718     0.002641487936    -0.003854858139
       9       -0.000062025357     0.000342810739    -0.000032394385
      10       -0.000012746333     0.000008362989    -0.000013618553
      11       -0.000000862752    -0.000017349232     0.000009662937
      12        0.000024594950     0.000009164941    -0.000005978081
      13       -0.000013067477     0.000026326448    -0.000008247172
      14       -0.000024399864    -0.000021727906     0.000001350200
      15       -0.000031281647     0.000042064746    -0.000006123983
      16        0.000025491317     0.000001570002    -0.000037716417
      17       -0.000000599951    -0.000074936165     0.000032245245
      18        0.000021355260    -0.000027673160     0.000067278967

*** Psi4 exiting successfully. Buy a developer a beer!
