                               Psi4 1.3.2 release

  ==> Input File <==

--------------------------------------------------------------------------
memory 50 GB
molecule {
1 1
C           0.1526875     0.0490483    -0.0394481
C          -0.5474362    -0.9422145    -0.7982886
C          -1.9670737    -0.9633877    -0.7588812
C          -2.6784705    -0.0114619     0.0269919
C          -1.9737092     0.9633340     0.7906863
C          -0.5537998     0.9890586     0.7757292
C           1.6782908     0.0270664    -0.0181478
N           2.3450522    -0.4259660     1.0995448
N           2.3877390     0.3826722    -1.1443907
H           0.0086190    -1.6844755    -1.4031112
H          -2.5177271    -1.7282393    -1.3404062
H          -3.7860569    -0.0323157     0.0481585
H          -2.5288640     1.7005869     1.4027566
H          -0.0017236     1.7431639     1.3694228
H           3.3968921    -0.4317809     1.1793288
H           1.7885775    -0.7095524     1.9469832
H           3.4394474     0.3331829    -1.2069659
H           1.8649689     0.7357995    -1.9869993
}
set {
basis STO-3G
}
gradient('BLYP')
--------------------------------------------------------------------------

    Molecular point group: c1
  Charge       = 1
  Multiplicity = 1
  Basis Set: STO-3G
    Blend: STO-3G
  Basis Set: (STO-3G AUX)
    Blend: DEF2-SVP-JKFIT

    Orbital Energies [Eh]
    ---------------------

    Doubly Occupied:

       1A    -14.135054     2A    -14.134890     3A    -10.099947
       4A     -9.940568     5A     -9.914648     6A     -9.914017
       7A     -9.901693     8A     -9.901117     9A     -9.900284
      10A     -1.050578    11A     -0.972220    12A     -0.873590
      13A     -0.799805    14A     -0.771714    15A     -0.737349
      16A     -0.680517    17A     -0.661709    18A     -0.644902
      19A     -0.626221    20A     -0.599652    21A     -0.566981
      22A     -0.524926    23A     -0.516451    24A     -0.478804
      25A     -0.477178    26A     -0.470308    27A     -0.413434
      28A     -0.406942    29A     -0.401534    30A     -0.373433
      31A     -0.315169    32A     -0.309458

  @DF-RKS Final Energy:  -376.53606041013745

   => Energetics <=

    Nuclear Repulsion Energy =            405.4921795388708006
    One-Electron Energy =               -1302.0199999870837928
    Two-Electron Energy =                 574.2835614604880448
    DFT Exchange-Correlation Energy =     -54.2918014224124903
    Empirical Dispersion Energy =           0.0000000000000000
    VV10 Nonlocal Energy =                  0.0000000000000000
    Total Energy =                       -376.5360604101374520

  Dipole Moment: [D]
     X:     7.2859      Y:    -0.0194      Z:     0.0329     Total:     7.2860

    Molecular point group: c1

    Geometry (in Angstrom), charge = 1, multiplicity = 1:

       Center              X                  Y                   Z               Mass
    ------------   -----------------  -----------------  -----------------  -----------------
         C            0.175180311846     0.043623093992    -0.032220929638    12.000000000000
         C           -0.524943388154    -0.947639706008    -0.791061429638    12.000000000000
         C           -1.944580888154    -0.968812906008    -0.751654029638    12.000000000000
         C           -2.655977688154    -0.016887106008     0.034219070362    12.000000000000
         C           -1.951216388154     0.957908793992     0.797913470362    12.000000000000
         C           -0.531306988154     0.983633393992     0.782956370362    12.000000000000
         C            1.700783611846     0.021641193992    -0.010920629638    12.000000000000
         N            2.367545011846    -0.431391206008     1.106771970362    14.003074004430
         N            2.410231811846     0.377246993992    -1.137163529638    14.003074004430
         H            0.031111811846    -1.689900706008    -1.395884029638     1.007825032230
         H           -2.495234288154    -1.733664506008    -1.333179029638     1.007825032230
         H           -3.763564088154    -0.037740906008     0.055385670362     1.007825032230
         H           -2.506371188154     1.695161693992     1.409983770362     1.007825032230
         H            0.020769211846     1.737738693992     1.376649970362     1.007825032230
         H            3.419384911846    -0.437206106008     1.186555970362     1.007825032230
         H            1.811070311846    -0.714977606008     1.954210370362     1.007825032230
         H            3.461940211846     0.327757693992    -1.199738729638     1.007825032230
         H            1.887461711846     0.730374293992    -1.979772129638     1.007825032230

  Basis Set: STO-3G
    Blend: STO-3G
  Basis Set: (STO-3G AUX)
    Blend: DEF2-SVP-JKFIT

  -Total Gradient:
     Atom            X                  Y                   Z
    ------   -----------------  -----------------  -----------------
       1       -0.000090943599     0.001848281580    -0.005102882138
       2        0.000167194424    -0.002574736780     0.002842855600
       3        0.000109262530     0.000173977366     0.000136311045
       4        0.000153223509    -0.000025234187    -0.000023112684
       5       -0.000227421594     0.000340244622     0.000308887434
       6       -0.000149627135    -0.000236398267    -0.000248945016
       7        0.000067176693     0.003868181596     0.003407397737
       8       -0.000068217107    -0.003700786554    -0.001238852477
       9        0.000058047991     0.000019035938     0.000203363649
      10        0.000029299739     0.000017146061    -0.000041234808
      11        0.000039731662    -0.000005935778     0.000004150563
      12        0.000012670926     0.000043818383     0.000024430416
      13       -0.000036322147     0.000005357132     0.000026856792
      14       -0.000047711305     0.000014909854    -0.000039574816
      15        0.000029615819     0.000073855049    -0.000203415021
      16       -0.000017406530     0.000039921975     0.000021964359
      17       -0.000008670799     0.000054410129    -0.000094965125
      18        0.000003754347     0.000039925267     0.000037414893

*** Psi4 exiting successfully. Buy a developer a beer!
