                               Psi4 1.3.2 release

  ==> Input File <==

--------------------------------------------------------------------------
memory 50 GB
molecule {
1 1
C           0.1505921     0.0605235    -0.0489324
C          -0.5586544    -0.8509780    -0.8983738
C          -1.9768679    -0.8814158    -0.8509859
C          -2.6840716    -0.0138021     0.0316994
C          -1.9743080     0.8804279     0.8858565
C          -0.5557105     0.9087047     0.8654990
C           1.6665979     0.0305449    -0.0298112
N           2.3360875    -0.2364726     1.1469436
N           2.3760653     0.1660298    -1.2053737
H          -0.0061598    -1.5348091    -1.5717380
H          -2.5310796    -1.5879784    -1.4991261
H          -3.7917139    -0.0387989     0.0585712
H          -2.5271439     1.5521752     1.5710908
H          -0.0016096     1.6051355     1.5245572
H           3.3868675    -0.2210452     1.2285298
H           1.7807828    -0.3805315     2.0288153
H           3.4250478     0.0793542    -1.2570387
H           1.8613426     0.4052320    -2.0910351
}
set {
basis STO-3G
}
gradient('BLYP')
--------------------------------------------------------------------------

    Molecular point group: c1
  Charge       = 1
  Multiplicity = 1
  Basis Set: STO-3G
    Blend: STO-3G
  Basis Set: (STO-3G AUX)
    Blend: DEF2-SVP-JKFIT

    Orbital Energies [Eh]
    ---------------------

    Doubly Occupied:

       1A    -14.129699     2A    -14.129421     3A    -10.096009
       4A     -9.944610     5A     -9.918907     6A     -9.918068
       7A     -9.906508     8A     -9.905151     9A     -9.904764
      10A     -1.046515    11A     -0.968375    12A     -0.876481
      13A     -0.801858    14A     -0.775383    15A     -0.736604
      16A     -0.678970    17A     -0.662814    18A     -0.642191
      19A     -0.627921    20A     -0.596534    21A     -0.568531
      22A     -0.528888    23A     -0.515006    24A     -0.481677
      25A     -0.480793    26A     -0.473130    27A     -0.415575
      28A     -0.410989    29A     -0.404958    30A     -0.368896
      31A     -0.319067    32A     -0.313282

  @DF-RKS Final Energy:  -376.53881015552429

   => Energetics <=

    Nuclear Repulsion Energy =            405.9887969247369597
    One-Electron Energy =               -1302.9532015759123169
    Two-Electron Energy =                 574.7183787058663711
    DFT Exchange-Correlation Energy =     -54.2927842102153875
    Empirical Dispersion Energy =           0.0000000000000000
    VV10 Nonlocal Energy =                  0.0000000000000000
    Total Energy =                       -376.5388101555242883

  Dipole Moment: [D]
     X:     6.9157      Y:    -0.0219      Z:     0.0211     Total:     6.9158

    Molecular point group: c1

    Geometry (in Angstrom), charge = 1, multiplicity = 1:

       Center              X                  Y                   Z               Mass
    ------------   -----------------  -----------------  -----------------  -----------------
         C            0.180289167395     0.056398586873    -0.037648523393    12.000000000000
         C           -0.528957332605    -0.855102913127    -0.887089923393    12.000000000000
         C           -1.947170832605    -0.885540713127    -0.839702023393    12.000000000000
         C           -2.654374532605    -0.017927013127     0.042983276607    12.000000000000
         C           -1.944610932605     0.876302986873     0.897140376607    12.000000000000
         C           -0.526013432605     0.904579786873     0.876782876607    12.000000000000
         C            1.696294967395     0.026419986873    -0.018527323393    12.000000000000
         N            2.365784567395    -0.240597513127     1.158227476607    14.003074004430
         N            2.405762367395     0.161904886873    -1.194089823393    14.003074004430
         H            0.023537267395    -1.538934013127    -1.560454123393     1.007825032230
         H           -2.501382532605    -1.592103313127    -1.487842223393     1.007825032230
         H           -3.762016832605    -0.042923813127     0.069855076607     1.007825032230
         H           -2.497446832605     1.548050286873     1.582374676607     1.007825032230
         H            0.028087467395     1.601010586873     1.535841076607     1.007825032230
         H            3.416564567395    -0.225170113127     1.239813676607     1.007825032230
         H            1.810479867395    -0.384656413127     2.040099176607     1.007825032230
         H            3.454744867395     0.075229286873    -1.245754823393     1.007825032230
         H            1.891039667395     0.401107086873    -2.079751223393     1.007825032230

  Basis Set: STO-3G
    Blend: STO-3G
  Basis Set: (STO-3G AUX)
    Blend: DEF2-SVP-JKFIT

  -Total Gradient:
     Atom            X                  Y                   Z
    ------   -----------------  -----------------  -----------------
       1        0.000220263948     0.002296621742    -0.005346343734
       2       -0.000052671540    -0.003043788541     0.003289648852
       3        0.000056498720     0.000066079072     0.000071693501
       4       -0.000011367847     0.000000285194    -0.000009614983
       5       -0.000107422899     0.000101747552     0.000117707209
       6       -0.000065930417    -0.000137534395    -0.000147665043
       7       -0.000063514542     0.005393956465     0.003074662916
       8        0.000056190968    -0.004513971199    -0.001174729299
       9       -0.000030632547    -0.000144986646    -0.000126009381
      10        0.000011622869    -0.000009746704     0.000015500270
      11        0.000004970105     0.000003652895     0.000005952849
      12       -0.000000490955     0.000014638313     0.000014568511
      13       -0.000020025485     0.000000153276     0.000003536582
      14       -0.000014150112    -0.000025638703    -0.000002046321
      15       -0.000023680327    -0.000078048948     0.000223794457
      16        0.000022616037    -0.000013680876    -0.000038316718
      17        0.000008422370     0.000047213760     0.000009660007
      18        0.000009912552     0.000051367802     0.000002127268

*** Psi4 exiting successfully. Buy a developer a beer!
