                               Psi4 1.3.2 release

  ==> Input File <==

--------------------------------------------------------------------------
memory 50 GB
molecule {
1 1
C           0.1591259    -0.0304433    -0.0390404
C          -0.5607466    -1.1776653     0.4303803
C          -1.9796061    -1.1470392     0.4495761
C          -2.6765287     0.0152898     0.0077753
C          -1.9563891     1.1607667    -0.4420938
C          -0.5374193     1.1539756    -0.4480126
C           1.6748533    -0.0241835     0.0116711
N           2.3961520    -0.9777937    -0.6770827
N           2.3376597     0.9903495     0.6709798
H          -0.0160989    -2.0734948     0.7871339
H          -2.5421046    -2.0278106     0.8159747
H          -3.7846001     0.0310520     0.0195855
H          -2.5017640     2.0620654    -0.7837116
H           0.0247329     2.0403164    -0.8010926
H           3.4465989    -1.0499886    -0.6284094
H           1.8802604    -1.7229430    -1.2114003
H           3.3872825     1.0846666     0.6741781
H           1.7809000     1.6987248     1.2138620
}
set {
basis STO-3G
}
gradient('BLYP')
--------------------------------------------------------------------------

    Molecular point group: c1
  Charge       = 1
  Multiplicity = 1
  Basis Set: STO-3G
    Blend: STO-3G
  Basis Set: (STO-3G AUX)
    Blend: DEF2-SVP-JKFIT

    Orbital Energies [Eh]
    ---------------------

    Doubly Occupied:

       1A    -14.129716     2A    -14.129564     3A    -10.096021
       4A     -9.944513     5A     -9.918652     6A     -9.918200
       7A     -9.906443     8A     -9.905097     9A     -9.904701
      10A     -1.046606    11A     -0.968396    12A     -0.876428
      13A     -0.801797    14A     -0.775342    15A     -0.736602
      16A     -0.679060    17A     -0.662688    18A     -0.642307
      19A     -0.627913    20A     -0.596605    21A     -0.568524
      22A     -0.528803    23A     -0.515087    24A     -0.481619
      25A     -0.480736    26A     -0.473045    27A     -0.415558
      28A     -0.410909    29A     -0.404926    30A     -0.368924
      31A     -0.319016    32A     -0.313233

  @DF-RKS Final Energy:  -376.53878119950059

   => Energetics <=

    Nuclear Repulsion Energy =            405.9409009541533351
    One-Electron Energy =               -1302.8584108020775147
    Two-Electron Energy =                 574.6715626895958167
    DFT Exchange-Correlation Energy =     -54.2928340411722132
    Empirical Dispersion Energy =           0.0000000000000000
    VV10 Nonlocal Energy =                  0.0000000000000000
    Total Energy =                       -376.5387811995005904

  Dipole Moment: [D]
     X:     6.9166      Y:    -0.0345      Z:     0.1760     Total:     6.9189

    Molecular point group: c1

    Geometry (in Angstrom), charge = 1, multiplicity = 1:

       Center              X                  Y                   Z               Mass
    ------------   -----------------  -----------------  -----------------  -----------------
         C            0.180139841203    -0.027363850861    -0.036103472100    12.000000000000
         C           -0.539732658797    -1.174585850861     0.433317227900    12.000000000000
         C           -1.958592158797    -1.143959750861     0.452513027900    12.000000000000
         C           -2.655514758797     0.018369249139     0.010712227900    12.000000000000
         C           -1.935375158797     1.163846149139    -0.439156872100    12.000000000000
         C           -0.516405358797     1.157055049139    -0.445075672100    12.000000000000
         C            1.695867241203    -0.021104050861     0.014608027900    12.000000000000
         N            2.417165941203    -0.974714250861    -0.674145772100    14.003074004430
         N            2.358673641203     0.993428949139     0.673916727900    14.003074004430
         H            0.004915041203    -2.070415350861     0.790070827900     1.007825032230
         H           -2.521090658797    -2.024731150861     0.818911627900     1.007825032230
         H           -3.763586158797     0.034131449139     0.022522427900     1.007825032230
         H           -2.480750058797     2.065144849139    -0.780774672100     1.007825032230
         H            0.045746841203     2.043395849139    -0.798155672100     1.007825032230
         H            3.467612841203    -1.046909150861    -0.625472472100     1.007825032230
         H            1.901274341203    -1.719863550861    -1.208463372100     1.007825032230
         H            3.408296441203     1.087746049139     0.677115027900     1.007825032230
         H            1.801913941203     1.701804249139     1.216798927900     1.007825032230

  Basis Set: STO-3G
    Blend: STO-3G
  Basis Set: (STO-3G AUX)
    Blend: DEF2-SVP-JKFIT

  -Total Gradient:
     Atom            X                  Y                   Z
    ------   -----------------  -----------------  -----------------
       1        0.000305283765    -0.001362790097    -0.007840997488
       2       -0.000171630445     0.001815765970     0.004159324014
       3       -0.000022648402    -0.000033906624     0.000009728595
       4        0.000058370620     0.000001199096     0.000000894641
       5       -0.000032512901     0.000052405936    -0.000024480883
       6       -0.000019808231    -0.000035270114     0.000038142315
       7       -0.000268289656    -0.003183302380     0.007367999517
       8        0.000107522446     0.002754538214    -0.003708375267
       9        0.000054745444    -0.000146246405     0.000112832080
      10        0.000001196467     0.000002723699    -0.000006233171
      11       -0.000002630723    -0.000002997859     0.000001988156
      12        0.000004024283     0.000001913671     0.000000437668
      13       -0.000003601959     0.000005164354     0.000000949475
      14       -0.000007828187    -0.000005650829    -0.000007967036
      15       -0.000000219362     0.000030645805    -0.000018833474
      16        0.000000659641     0.000015450929    -0.000017667933
      17       -0.000004062166     0.000065802915    -0.000025421125
      18       -0.000002781820     0.000016306313    -0.000044102302

*** Psi4 exiting successfully. Buy a developer a beer!
