                               Psi4 1.3.2 release

  ==> Input File <==

--------------------------------------------------------------------------
memory 50 GB
molecule {
1 1
C           0.1521194    -0.0376630    -0.0324723
C          -0.5662540    -1.1302727     0.5484409
C          -1.9861472    -1.0945454     0.5622836
C          -2.6798246     0.0188358     0.0066865
C          -1.9566284     1.1102707    -0.5555922
C          -0.5365282     1.0992052    -0.5632437
C           1.6775133    -0.0319658     0.0078067
N           2.3952845    -0.8542468    -0.8331586
N           2.3369460     0.8540796     0.8314298
H          -0.0233825    -1.9907288     0.9853481
H          -2.5501159    -1.9350441     1.0115528
H          -3.7875903     0.0386594     0.0165062
H          -2.4986528     1.9756550    -0.9842067
H           0.0287248     1.9469671    -0.9964917
H           3.4485240    -0.9120378    -0.8240906
H           1.8760000    -1.5092428    -1.4731064
H           3.3874700     0.9433922     0.8614064
H           1.7749094     1.4724769     1.4714986
}
set {
basis STO-3G
}
gradient('BLYP')
--------------------------------------------------------------------------

    Molecular point group: c1
  Charge       = 1
  Multiplicity = 1
  Basis Set: STO-3G
    Blend: STO-3G
  Basis Set: (STO-3G AUX)
    Blend: DEF2-SVP-JKFIT

    Orbital Energies [Eh]
    ---------------------

    Doubly Occupied:

       1A    -14.135105     2A    -14.134929     3A    -10.099961
       4A     -9.940504     5A     -9.914368     6A     -9.914203
       7A     -9.901655     8A     -9.901069     9A     -9.900246
      10A     -1.050587    11A     -0.972267    12A     -0.873558
      13A     -0.799782    14A     -0.771672    15A     -0.737368
      16A     -0.680532    17A     -0.661735    18A     -0.644899
      19A     -0.626191    20A     -0.599744    21A     -0.566950
      22A     -0.524883    23A     -0.516461    24A     -0.478756
      25A     -0.477146    26A     -0.470285    27A     -0.413398
      28A     -0.406947    29A     -0.401481    30A     -0.373466
      31A     -0.315144    32A     -0.309412

  @DF-RKS Final Energy:  -376.53604878225133

   => Energetics <=

    Nuclear Repulsion Energy =            405.4876443381537001
    One-Electron Energy =               -1302.0116209937425538
    Two-Electron Energy =                 574.2798210551602551
    DFT Exchange-Correlation Energy =     -54.2918931818227222
    Empirical Dispersion Energy =           0.0000000000000000
    VV10 Nonlocal Energy =                  0.0000000000000000
    Total Energy =                       -376.5360487822513278

  Dipole Moment: [D]
     X:     7.2868      Y:    -0.0240      Z:     0.1248     Total:     7.2879

    Molecular point group: c1

    Geometry (in Angstrom), charge = 1, multiplicity = 1:

       Center              X                  Y                   Z               Mass
    ------------   -----------------  -----------------  -----------------  -----------------
         C            0.175364015858    -0.031339471985    -0.030255996349    12.000000000000
         C           -0.543009384142    -1.123949171985     0.550657203651    12.000000000000
         C           -1.962902584142    -1.088221871985     0.564499903651    12.000000000000
         C           -2.656579984142     0.025159328015     0.008902803651    12.000000000000
         C           -1.933383784142     1.116594228015    -0.553375896349    12.000000000000
         C           -0.513283584142     1.105528728015    -0.561027396349    12.000000000000
         C            1.700757915858    -0.025642271985     0.010023003651    12.000000000000
         N            2.418529115858    -0.847923271985    -0.830942296349    14.003074004430
         N            2.360190615858     0.860403128015     0.833646103651    14.003074004430
         H           -0.000137884142    -1.984405271985     0.987564403651     1.007825032230
         H           -2.526871284142    -1.928720571985     1.013769103651     1.007825032230
         H           -3.764345684142     0.044982928015     0.018722503651     1.007825032230
         H           -2.475408184142     1.981978528015    -0.981990396349     1.007825032230
         H            0.051969415858     1.953290628015    -0.994275396349     1.007825032230
         H            3.471768615858    -0.905714271985    -0.821874296349     1.007825032230
         H            1.899244615858    -1.502919271985    -1.470890096349     1.007825032230
         H            3.410714615858     0.949715728015     0.863622703651     1.007825032230
         H            1.798154015858     1.478800428015     1.473714903651     1.007825032230

  Basis Set: STO-3G
    Blend: STO-3G
  Basis Set: (STO-3G AUX)
    Blend: DEF2-SVP-JKFIT

  -Total Gradient:
     Atom            X                  Y                   Z
    ------   -----------------  -----------------  -----------------
       1       -0.000034371585    -0.001395710070    -0.006100182243
       2       -0.000059356233     0.001878698164     0.003357297397
       3       -0.000053798593    -0.000089741895     0.000032101402
       4        0.000022068859     0.000007695889     0.000002231415
       5        0.000049940458    -0.000077932519     0.000022799816
       6        0.000138205295     0.000147883417    -0.000045806357
       7        0.000049951839    -0.003214357352     0.005398735436
       8       -0.000002145072     0.002686908007    -0.002674635092
       9       -0.000092855041    -0.000064599429     0.000100270944
      10       -0.000007154758    -0.000001075637    -0.000007391575
      11       -0.000004095296    -0.000004033136     0.000004890384
      12        0.000002963378    -0.000014260962     0.000007214191
      13        0.000012162031    -0.000003190786     0.000001368141
      14        0.000005170858     0.000003996346    -0.000013428930
      15        0.000009284639     0.000099128986     0.000017367025
      16       -0.000004439634     0.000036099607    -0.000037643971
      17        0.000000492285    -0.000001476132    -0.000049704748
      18       -0.000008395831     0.000020487991    -0.000015828075

*** Psi4 exiting successfully. Buy a developer a beer!
