                               Psi4 1.3.2 release

  ==> Input File <==

--------------------------------------------------------------------------
memory 50 GB
molecule {
1 1
C           0.1527361     0.0023531    -0.0110388
C          -0.5726084    -0.7357952    -1.0082455
C          -1.9899888    -0.7360619    -0.9882895
C          -2.6920356     0.0015114     0.0108598
C          -1.9760366     0.7386153     1.0003922
C          -0.5585392     0.7375810     0.9984536
C           1.6594899    -0.0033552    -0.0176387
N           2.3679427     0.1292445     1.1621363
N           2.3579997    -0.1486866    -1.2018967
H          -0.0343438    -1.3370000    -1.7665891
H          -2.5498543    -1.3163999    -1.7474018
H          -3.8005833     0.0013413     0.0188347
H          -2.5245901     1.3177397     1.7686468
H          -0.0089915     1.3375054     1.7496997
H           3.4195744     0.1625834     1.1864636
H           1.8584882     0.1246334     2.0808347
H           3.4088237    -0.1945760    -1.2380930
H           1.8405855    -0.1359829    -2.1160574
}
set {
basis STO-3G
}
gradient('BLYP')
--------------------------------------------------------------------------

    Molecular point group: c1
  Charge       = 1
  Multiplicity = 1
  Basis Set: STO-3G
    Blend: STO-3G
  Basis Set: (STO-3G AUX)
    Blend: DEF2-SVP-JKFIT

    Orbital Energies [Eh]
    ---------------------

    Doubly Occupied:

       1A    -14.122526     2A    -14.122443     3A    -10.092020
       4A     -9.951188     5A     -9.925051     6A     -9.924975
       7A     -9.913647     8A     -9.910950     9A     -9.910733
      10A     -1.042033    11A     -0.963208    12A     -0.880530
      13A     -0.804896    14A     -0.780832    15A     -0.736832
      16A     -0.677705    17A     -0.666784    18A     -0.635146
      19A     -0.632014    20A     -0.593997    21A     -0.570188
      22A     -0.535643    23A     -0.510548    24A     -0.488730
      25A     -0.485914    26A     -0.480051    27A     -0.417267
      28A     -0.417082    29A     -0.410208    30A     -0.363207
      31A     -0.323854    32A     -0.318651

  @DF-RKS Final Energy:  -376.54215512659391

   => Energetics <=

    Nuclear Repulsion Energy =            406.4221183637985746
    One-Electron Energy =               -1303.7035321889652550
    Two-Electron Energy =                 575.0330081759893801
    DFT Exchange-Correlation Energy =     -54.2937494774165046
    Empirical Dispersion Energy =           0.0000000000000000
    VV10 Nonlocal Energy =                  0.0000000000000000
    Total Energy =                       -376.5421551265938547

  Dipole Moment: [D]
     X:     6.4495      Y:    -0.0213      Z:    -0.0343     Total:     6.4496

    Molecular point group: c1

    Geometry (in Angstrom), charge = 1, multiplicity = 1:

       Center              X                  Y                   Z               Mass
    ------------   -----------------  -----------------  -----------------  -----------------
         C            0.185148397416     0.004455381036    -0.004373509124    12.000000000000
         C           -0.540196102584    -0.733692918964    -1.001580209124    12.000000000000
         C           -1.957576502584    -0.733959618964    -0.981624209124    12.000000000000
         C           -2.659623302584     0.003613681036     0.017525090876    12.000000000000
         C           -1.943624302584     0.740717581036     1.007057490876    12.000000000000
         C           -0.526126902584     0.739683281036     1.005118890876    12.000000000000
         C            1.691902197416    -0.001252918964    -0.010973409124    12.000000000000
         N            2.400354997416     0.131346781036     1.168801590876    14.003074004430
         N            2.390411997416    -0.146584318964    -1.195231409124    14.003074004430
         H           -0.001931502584    -1.334897718964    -1.759923809124     1.007825032230
         H           -2.517442002584    -1.314297618964    -1.740736509124     1.007825032230
         H           -3.768171002584     0.003443581036     0.025499990876     1.007825032230
         H           -2.492177802584     1.319841981036     1.775312090876     1.007825032230
         H            0.023420797416     1.339607681036     1.756364990876     1.007825032230
         H            3.451986697416     0.164685681036     1.193128890876     1.007825032230
         H            1.890900497416     0.126735681036     2.087499990876     1.007825032230
         H            3.441235997416    -0.192473718964    -1.231427709124     1.007825032230
         H            1.872997797416    -0.133880618964    -2.109392109124     1.007825032230

  Basis Set: STO-3G
    Blend: STO-3G
  Basis Set: (STO-3G AUX)
    Blend: DEF2-SVP-JKFIT

  -Total Gradient:
     Atom            X                  Y                   Z
    ------   -----------------  -----------------  -----------------
       1        0.000201797146     0.000282332272    -0.000224085315
       2        0.000015990667    -0.000216856463     0.000318173741
       3       -0.000111540829    -0.000123873348    -0.000150449600
       4        0.000411576451     0.000012376465    -0.000022657484
       5       -0.000283438956     0.000284466329     0.000423538295
       6       -0.000161289358    -0.000240432813    -0.000348505452
       7        0.000234927155     0.000375418240    -0.000189748252
       8       -0.000375376143    -0.000185655444     0.000458287889
       9        0.000110152520    -0.000108440178     0.000072470045
      10       -0.000015116667     0.000002104584     0.000011842207
      11        0.000010575251    -0.000020917586    -0.000019195337
      12        0.000034464530     0.000016578827     0.000017951697
      13       -0.000023234221     0.000015950335     0.000034409601
      14       -0.000040157613    -0.000023923819    -0.000010148063
      15       -0.000014022297    -0.000093335841    -0.000306517554
      16        0.000015874850    -0.000053306109     0.000064320015
      17       -0.000016073372     0.000028289187    -0.000125381286
      18        0.000020933852     0.000050110383    -0.000003950669

*** Psi4 exiting successfully. Buy a developer a beer!
