                               Psi4 1.3.2 release

  ==> Input File <==

--------------------------------------------------------------------------
memory 50 GB
molecule {
1 1
C           0.1516875     0.0513274     0.0377709
C          -0.5499529    -0.9117405     0.8308628
C          -1.9696070    -0.9350616     0.7935870
C          -2.6797261    -0.0108146    -0.0256676
C          -1.9731030     0.9352071    -0.8231646
C          -0.5531869     0.9622249    -0.8110535
C           1.6771753     0.0272717     0.0180018
N           2.3426379    -0.4659590    -1.0833289
N           2.3867787     0.4166819     1.1329155
H           0.0060052    -1.6325512     1.4611537
H          -2.5203563    -1.6786827     1.4019649
H          -3.7873351    -0.0311247    -0.0464750
H          -2.5280904     1.6505336    -1.4608293
H          -0.0010579     1.6942945    -1.4317138
H           3.3943124    -0.4755550    -1.1650612
H           1.7847573    -0.7755563    -1.9206972
H           3.4384114     0.3670990     1.1967249
H           1.8647552     0.7985013     1.9633894
}
set {
basis STO-3G
}
gradient('BLYP')
--------------------------------------------------------------------------

    Molecular point group: c1
  Charge       = 1
  Multiplicity = 1
  Basis Set: STO-3G
    Blend: STO-3G
  Basis Set: (STO-3G AUX)
    Blend: DEF2-SVP-JKFIT

    Orbital Energies [Eh]
    ---------------------

    Doubly Occupied:

       1A    -14.135011     2A    -14.134878     3A    -10.099904
       4A     -9.940590     5A     -9.914636     6A     -9.914089
       7A     -9.901735     8A     -9.901139     9A     -9.900320
      10A     -1.050537    11A     -0.972226    12A     -0.873616
      13A     -0.799824    14A     -0.771740    15A     -0.737349
      16A     -0.680488    17A     -0.661730    18A     -0.644893
      19A     -0.626213    20A     -0.599640    21A     -0.566984
      22A     -0.524955    23A     -0.516447    24A     -0.478807
      25A     -0.477206    26A     -0.470329    27A     -0.413454
      28A     -0.407001    29A     -0.401541    30A     -0.373415
      31A     -0.315209    32A     -0.309483

  @DF-RKS Final Energy:  -376.53606300981824

   => Energetics <=

    Nuclear Repulsion Energy =            405.5082052270976192
    One-Electron Energy =               -1302.0514306294280686
    Two-Electron Energy =                 574.2990049195292386
    DFT Exchange-Correlation Energy =     -54.2918425270169962
    Empirical Dispersion Energy =           0.0000000000000000
    VV10 Nonlocal Energy =                  0.0000000000000000
    Total Energy =                       -376.5360630098182355

  Dipole Moment: [D]
     X:     7.2822      Y:    -0.0255      Z:    -0.0325     Total:     7.2823

    Molecular point group: c1

    Geometry (in Angstrom), charge = 1, multiplicity = 1:

       Center              X                  Y                   Z               Mass
    ------------   -----------------  -----------------  -----------------  -----------------
         C            0.175390371678     0.045981604344     0.030033228499    12.000000000000
         C           -0.526250028322    -0.917086295656     0.823125128499    12.000000000000
         C           -1.945904128322    -0.940407395656     0.785849328499    12.000000000000
         C           -2.656023228322    -0.016160395656    -0.033405271501    12.000000000000
         C           -1.949400128322     0.929861304344    -0.830902271501    12.000000000000
         C           -0.529484028322     0.956879104344    -0.818791171501    12.000000000000
         C            1.700878171678     0.021925904344     0.010264128499    12.000000000000
         N            2.366340771678    -0.471304795656    -1.091066571501    14.003074004430
         N            2.410481571678     0.411336104344     1.125177828499    14.003074004430
         H            0.029708071678    -1.637896995656     1.453416028499     1.007825032230
         H           -2.496653428322    -1.684028495656     1.394227228499     1.007825032230
         H           -3.763632228322    -0.036470495656    -0.054212671501     1.007825032230
         H           -2.504387528322     1.645187804344    -1.468566971501     1.007825032230
         H            0.022644971678     1.688948704344    -1.439451471501     1.007825032230
         H            3.418015271678    -0.480900795656    -1.172798871501     1.007825032230
         H            1.808460171678    -0.780902095656    -1.928434871501     1.007825032230
         H            3.462114271678     0.361753204344     1.188987228499     1.007825032230
         H            1.888458071678     0.793155504344     1.955651728499     1.007825032230

  Basis Set: STO-3G
    Blend: STO-3G
  Basis Set: (STO-3G AUX)
    Blend: DEF2-SVP-JKFIT

  -Total Gradient:
     Atom            X                  Y                   Z
    ------   -----------------  -----------------  -----------------
       1       -0.000122392763     0.001912775726     0.005064427811
       2       -0.000099941685    -0.002337217934    -0.003075823293
       3       -0.000105868375    -0.000162497347     0.000141667514
       4        0.000011459275     0.000013083982    -0.000015253512
       5        0.000112403072    -0.000158459722     0.000144730561
       6        0.000213671762     0.000202641941    -0.000158568834
       7        0.000155799356     0.004216943145    -0.003740820230
       8       -0.000129497793    -0.003764430951     0.001554152874
       9       -0.000030394664    -0.000051558936    -0.000045903617
      10       -0.000022486982     0.000013895617     0.000003965223
      11       -0.000017983076    -0.000009469770     0.000004259450
      12        0.000001625019    -0.000022509608     0.000022815431
      13        0.000026713213    -0.000007443821     0.000002459228
      14        0.000020159642     0.000022677763    -0.000000716115
      15        0.000015314255     0.000055577401     0.000084342712
      16       -0.000011821571     0.000020619036    -0.000019404123
      17        0.000001560934     0.000037016783     0.000030627984
      18        0.000004129732     0.000014165640    -0.000017375110

*** Psi4 exiting successfully. Buy a developer a beer!
