                               Psi4 1.3.2 release

  ==> Input File <==

--------------------------------------------------------------------------
memory 50 GB
molecule {
1 1
C           0.1669419     0.0025491    -0.0156831
C          -0.5576553    -1.2362127    -0.1203595
C          -1.9745784    -1.2313134    -0.1186524
C          -2.6865963    -0.0011035     0.0010728
C          -1.9753907     1.2297221     0.1188233
C          -0.5584701     1.2385157     0.1128322
C           1.6740630     0.0027074     0.0049002
N           2.3835493    -1.1632772     0.2333558
N           2.3895935     1.1607705    -0.2425696
H          -0.0240672    -2.1980627    -0.2462854
H          -2.5265738    -2.1865504    -0.2148910
H          -3.7952698    -0.0019365     0.0051568
H          -2.5286081     2.1832393     0.2243850
H          -0.0258719     2.2006176     0.2417565
H           3.4351171    -1.1931173     0.2290071
H           1.8789762    -2.0344714     0.5303194
H           3.4407410     1.1895269    -0.2142183
H           1.8894306     2.0377393    -0.5295748
}
set {
basis STO-3G
}
gradient('BLYP')
--------------------------------------------------------------------------

    Molecular point group: c1
  Charge       = 1
  Multiplicity = 1
  Basis Set: STO-3G
    Blend: STO-3G
  Basis Set: (STO-3G AUX)
    Blend: DEF2-SVP-JKFIT

    Orbital Energies [Eh]
    ---------------------

    Doubly Occupied:

       1A    -14.120447     2A    -14.120257     3A    -10.091649
       4A     -9.954378     5A     -9.928135     6A     -9.927997
       7A     -9.916255     8A     -9.913068     9A     -9.912868
      10A     -1.040947    11A     -0.961510    12A     -0.882090
      13A     -0.806078    14A     -0.782952    15A     -0.737907
      16A     -0.677632    17A     -0.668368    18A     -0.634629
      19A     -0.632758    20A     -0.592828    21A     -0.570773
      22A     -0.538678    23A     -0.507306    24A     -0.493793
      25A     -0.487847    26A     -0.483553    27A     -0.419738
      28A     -0.417671    29A     -0.412063    30A     -0.361355
      31A     -0.325434    32A     -0.320447

  @DF-RKS Final Energy:  -376.54167224476407

   => Energetics <=

    Nuclear Repulsion Energy =            406.3243694099789423
    One-Electron Energy =               -1303.4427987784388279
    Two-Electron Energy =                 574.8693356718299583
    DFT Exchange-Correlation Energy =     -54.2925785481341805
    Empirical Dispersion Energy =           0.0000000000000000
    VV10 Nonlocal Energy =                  0.0000000000000000
    Total Energy =                       -376.5416722447640723

  Dipole Moment: [D]
     X:     6.3060      Y:     0.0145      Z:     0.0851     Total:     6.3066

    Molecular point group: c1

    Geometry (in Angstrom), charge = 1, multiplicity = 1:

       Center              X                  Y                   Z               Mass
    ------------   -----------------  -----------------  -----------------  -----------------
         C            0.186301871157     0.002381965270    -0.013139557006    12.000000000000
         C           -0.538295328843    -1.236379834730    -0.117815957006    12.000000000000
         C           -1.955218428843    -1.231480534730    -0.116108857006    12.000000000000
         C           -2.667236328843    -0.001270634730     0.003616342994    12.000000000000
         C           -1.956030728843     1.229554965270     0.121366842994    12.000000000000
         C           -0.539110128843     1.238348565270     0.115375742994    12.000000000000
         C            1.693422971157     0.002540265270     0.007443742994    12.000000000000
         N            2.402909271157    -1.163444334730     0.235899342994    14.003074004430
         N            2.408953471157     1.160603365270    -0.240026057006    14.003074004430
         H           -0.004707228843    -2.198229834730    -0.243741857006     1.007825032230
         H           -2.507213828843    -2.186717534730    -0.212347457006     1.007825032230
         H           -3.775909828843    -0.002103634730     0.007700342994     1.007825032230
         H           -2.509248128843     2.183072165270     0.226928542994     1.007825032230
         H           -0.006511928843     2.200450465270     0.244300042994     1.007825032230
         H            3.454477071157    -1.193284434730     0.231550642994     1.007825032230
         H            1.898336171157    -2.034638534730     0.532862942994     1.007825032230
         H            3.460100971157     1.189359765270    -0.211674757006     1.007825032230
         H            1.908790571157     2.037572165270    -0.527031257006     1.007825032230

  Basis Set: STO-3G
    Blend: STO-3G
  Basis Set: (STO-3G AUX)
    Blend: DEF2-SVP-JKFIT

  -Total Gradient:
     Atom            X                  Y                   Z
    ------   -----------------  -----------------  -----------------
       1        0.000105133664     0.000021472269    -0.003448196447
       2       -0.000090380285    -0.000046654302     0.001710529195
       3       -0.000082386276    -0.000079811299    -0.000006321420
       4       -0.000142155083    -0.000006067463     0.000003114359
       5        0.000167876935    -0.000304316101    -0.000020347378
       6        0.000096173784     0.000196829495     0.000052284298
       7       -0.000524253708     0.000519977175     0.003557283570
       8        0.000240106962     0.000038988956    -0.001723610405
       9        0.000157174831    -0.000088467698    -0.000144541616
      10        0.000046858366     0.000060974997     0.000038444000
      11       -0.000026759262     0.000007247310    -0.000016711247
      12       -0.000014526277    -0.000029472447     0.000001203599
      13        0.000018111222    -0.000020715029    -0.000002148944
      14        0.000060070087    -0.000004339109     0.000007684576
      15       -0.000024712376    -0.000471456727     0.000033086564
      16       -0.000009065762     0.000041709654    -0.000081012456
      17        0.000000695446     0.000190758657    -0.000002028119
      18        0.000012723026    -0.000027659013     0.000040953051

*** Psi4 exiting successfully. Buy a developer a beer!
